! S-parameter export from POSTFEKO
! Filename: circular_2wg_10modes_coarse
! Creation date: 2020-03-06 09:43:36
! 
# Hz S MA R    5.0000000E+01 
  6.0000000E+09     8.8439813E-03     1.5985897E+02     7.7964268E-06     7.7785127E+00     2.4358861E-06    -4.5991995E+01     5.1961810E-06    -1.4534147E+02   
                   8.9926526E-06     1.5207729E+02     1.9556453E-06    -1.6147747E+02     3.2956364E-06    -8.2417626E+01     2.0773500E-06    -8.1809071E+01   
                   2.6196984E-02     1.1474328E+02     4.9225992E-06     1.2600494E+02     9.9996936E-01    -9.5976984E+00     3.3994012E-06     1.1138761E+02   
                   4.5045397E-06     1.1932783E+02     3.4472024E-06    -5.3975767E+01     1.2980347E-05    -1.6860785E+02     2.2169590E-06     1.1217084E+02   
                   3.0127625E-06    -1.7163770E+02     1.4834658E-06     1.3521309E+02     3.6954238E-02    -3.7687370E+01     2.0152453E-06    -1.1827736E+02   
                   1.3185897E-06     1.7419906E+02     4.6010157E-01    -2.2620874E+00     2.4864293E-06     1.1530261E+02     9.2875102E-07    -1.2264030E+02   
                   5.0141463E-06    -3.3323797E+01     1.2402061E-06     2.6172770E+01     9.2942502E-07     4.1527067E+01     1.0105872E-06    -8.3108939E+01   
                   3.6585677E-07     6.9803452E+01     2.2943657E-02    -8.8068316E+01     8.4431063E-07     1.2077159E+02     8.8786758E-01    -3.3213142E+00   
                   1.7146516E-06     9.1813608E+01     5.6391309E-07     6.8588217E+01     2.5950588E-06     1.7515548E+02     3.0192407E-06     8.6000588E+01   
                   3.7232504E-06    -1.0781736E+02     4.8481339E-07     2.5577095E+01     8.1968842E-07     9.4561553E+01     2.8363401E-02     1.6688659E+00   
                   3.6773706E-06     8.8441612E+01     5.5165864E-06     1.1242006E+02     8.0239521E-02     2.7302620E-03     1.3776027E-06    -2.6021096E+01   
                   9.7299210E-06    -9.5560431E+01     4.5273361E-06    -1.4148514E+00     4.2842610E-06    -1.8642100E+01     1.4804949E-06    -4.2596259E+00   
                   2.6375890E-06    -1.1980668E+02     2.9457037E-06     1.3077051E+02     3.3031993E-06     1.2139055E+02     2.0366382E-06     1.4045685E+02   
                   8.2087835E-01     1.7999990E+02     5.1097283E-06     1.5726883E+02     1.3026077E-05    -1.6461061E+02     6.0594404E-06    -6.0687653E-01   
                   3.9815939E-06    -5.2441542E+01     3.2016215E-06    -1.4535690E+02     3.1736926E-06    -1.4401114E+02     5.5011690E-06     1.4968823E+02   
                   3.7524751E-06    -1.4554262E+02     8.5981050E-06     1.3590759E+02     1.8857128E-06     1.5388667E+02     2.4891742E-02     4.9734042E-03   
                   7.1309703E-06     2.3037466E+01     5.3114152E-06    -3.4155070E-01     1.1133065E-05    -1.2410256E+01     2.3444889E-06     1.1004204E+02   
                   2.8601910E-06    -1.7180738E+01     4.1307712E-06    -7.4976685E+01     5.3758821E-06     1.7890970E+02     3.8423890E-06    -1.1797882E+02   
                   2.8917079E-06     6.0867075E+01     7.3514796E-01    -1.7999964E+02     4.4941900E-06    -1.6600650E+02     3.0120932E-06     5.1514245E+01   
                   7.6057005E-06    -9.2275311E+01     2.1796572E-06    -1.3839378E+02     3.3264887E-06     4.5269621E+01     1.2354863E-05    -1.2258881E+02   
                   3.3997099E-06     1.7372125E+02     5.9064308E-06     4.5070014E+01     3.4929431E-06     6.3420694E+01     4.4649410E-06     1.5378281E+02   
                   2.4857583E-03     1.6924739E+01     1.6052147E-06    -4.8083494E+01     7.0624352E-06    -2.6899861E+01     2.6592418E-06    -4.1170413E+00   
                   3.2200946E-06    -1.1095143E+02     3.5088512E-06    -1.7240435E+02     4.0122320E-06    -1.2018588E+02     4.1599466E-06    -1.7453715E+01   
                   2.3912876E-06     1.6337137E+02     3.9284154E-06     1.4918434E+02     7.3851409E-01     1.7992601E+02     3.2106987E-06    -6.5815884E+00   
                   3.9162395E-06    -5.3040891E+00     1.7784986E-06    -4.2594747E+01     9.3800090E-07    -9.1242838E+01     7.3337093E-06     1.0180487E+02   
                   4.4361744E-06     5.2939366E+01     1.7843242E-06     2.7162255E+01     5.0682694E-06    -1.0238513E+01     4.9318058E-06    -2.5639876E+01   
                   2.1123326E-06    -9.2952981E+01     5.1229818E-02     1.7552103E-03     4.9342835E-06     1.4009624E+02     4.2356242E-05     4.2542929E-01   
                   2.3801395E-06    -3.2818037E+01     6.9523690E-07    -9.6033727E+01     2.4158421E-06     1.6308348E+02     2.1054190E-06     1.3121149E+02   
                   6.3529002E-06    -1.5214555E+02     5.8207829E-06     1.5375219E+02     1.5377802E-06     1.6993510E+02     6.9527503E-01    -1.8453451E-04   
                   1.5018494E-06     1.4101197E+02     5.2013327E-05    -1.7653389E+02     7.7797365E-06    -1.4454816E+01     7.5789615E-06     6.0156264E+01   
                   5.9701275E-06    -1.4258589E+02     1.0167862E-05     1.6713112E+02     1.7161799E-06     1.7543835E+02     2.2397001E-06     4.4572583E+01   
                   3.3601750E-06    -4.0114976E+01     1.8383829E-06    -2.8739983E+01     6.6033864E-03     1.6195437E-02     1.9346059E-06     1.5003746E+02   
                   1.1865073E-06    -1.6662685E+02     1.5619100E-06     8.6212619E+01     2.0315539E-06    -1.5684334E+02     1.9512809E-06    -1.3794315E+02   
                   1.6681908E-06    -1.0379180E+02     5.8127062E-06    -1.1482644E+02     1.5263006E-05    -7.6012390E+01     4.6545865E-06     1.4859179E+02   
                   6.2736060E-01    -3.9235107E-04     2.1347570E-06    -6.3015248E+01     2.1360792E-06     1.7231113E+02     1.3586323E-05    -4.8088614E+01   
                   2.9522404E-06     9.5604481E+01     3.0756305E-06     1.5347353E+02     5.0815189E-06     5.0164695E+01     2.1600446E-06    -7.2499856E+01   
                   6.7363988E-06     6.2626458E+00     4.4448250E-05     2.1791669E+00     6.5445157E-06     8.2476658E+01     4.5259846E-02     2.7720436E-03   
                   3.2194584E-06    -4.9672777E+01     2.7318266E-06    -1.4101959E+02     2.2490751E-06    -1.3366985E+02     3.0088792E-06     1.2784779E+02   
                   2.1182760E-06    -8.7733903E+01     5.4119306E-06    -1.6495947E+02     8.4035643E-06    -8.4186335E+01     5.3225882E-05    -8.2794204E-01   
                   1.8078655E-06    -9.2761675E+01     6.0429056E-01    -1.7999992E+02     3.0093214E-06     4.5229714E+00     2.9939396E-06    -1.5020069E+02   
                   2.6201022E-02     1.1472789E+02     1.6172677E-05    -2.7220682E+01     2.4369719E-06    -1.3383153E+02     6.0323552E-06    -8.5781707E+01   
                   3.4614526E-06     1.3792717E+02     5.5373482E-06    -8.5203798E+01     1.0981844E-05     1.4636919E+02     7.8207840E-06    -1.5049686E+01   
                   1.8919813E-02    -2.0885047E+00     1.1748234E-06    -1.1306729E+01     2.6406828E-02     1.4548247E+02     6.7304561E-06     9.7082221E+01   
                   1.4449697E-06     9.7830187E+01     1.7970175E-06     7.7115740E+01     1.7677820E-05     9.6364732E+01     3.1419319E-06    -5.6277060E+01   
                   2.0341449E-06     1.1271189E+02     5.8185273E-06     9.0801536E+01     6.1104892E-01     8.1077347E-02     1.9710666E-05     6.3517893E+01   
                   2.1931286E-06     1.0344076E+02     2.2940787E-02    -8.8070157E+01     2.1214364E-06     3.8521379E+01     1.9690441E-06    -1.0930893E+02   
                   9.0848698E-06    -7.0731206E+01     2.7691375E-06    -6.7509712E+01     2.3443288E-06     5.1414858E+01     8.4177635E-07    -1.4765262E+02   
                   5.4193500E-07     1.4022657E+02     1.1978246E-02     3.3579854E+00     3.6416426E-06     7.2524066E+01     2.9574732E-02     1.5118813E+02   
                   6.1009684E-07    -4.2472114E+01     8.4721441E-07    -1.3626227E+02     3.2325839E-06    -1.6636816E+02     2.1708888E-06     4.9430851E+01   
                   3.0148328E-06     1.1494394E+02     2.4139780E-06    -6.3190615E+01     1.6532368E-06     6.8416675E+01     5.9842589E-01     3.6189904E-02   
                   9.9996354E-01    -9.5975488E+00     3.4132903E-06    -1.6533159E+02     2.0757431E-07     3.2269543E+01     3.3455246E-06     1.3866306E+02   
                   2.9598877E-06    -8.0120834E-01     3.6606591E-06     1.3360828E+02     1.0092288E-06    -4.4070572E+01     1.5178738E-06     1.4969060E+02   
                   2.6414837E-02     1.4548146E+02     5.2194121E-07     7.9535572E+01     8.8465666E-03     9.0987701E-01     1.4093190E-06    -1.1559166E+02   
                   4.7024467E-07     9.2055585E+01     3.6886272E-06    -2.1050840E+01     1.2136428E-06     1.5525892E+02     2.7795336E-06     1.3543978E+02   
                   4.9395647E-07    -1.6762587E+02     3.1366288E-06    -5.4544625E+01     3.7222356E-02    -6.1621380E+01     1.6539844E-06     1.5528147E+01   
                   8.1947303E-07    -6.9089541E+01     8.8786646E-01    -3.3210167E+00     1.2428601E-06    -1.5441153E+02     1.1658653E-06    -4.6585454E+01   
                   3.5185548E-06    -8.5378281E+01     1.1868177E-06    -5.1391104E+01     1.4472894E-06     1.1849007E+02     1.6923572E-06    -5.3774943E+01   
                   1.0221870E-06     5.7672822E+01     2.9574061E-02     1.5118588E+02     1.5453327E-06    -7.6898330E+01     4.6009994E-01     1.7561864E+02   
                   1.3499605E-06     1.7043362E+02     2.8997125E-07    -1.1877909E+02     1.0806256E-06     6.0361802E+00     6.6003263E-07    -1.2964931E+02   
                   5.2052630E-06     1.4862294E+02     1.3758708E-06     1.7557191E+02     7.0832272E-07     8.6869352E+00     3.3835480E-02     1.1062386E+02   
                   2.2877908E-06    -1.1045695E+02     2.9991248E-06     6.0740065E+01     8.2087780E-01    -1.7999984E+02     1.7724134E-06    -1.5201299E+02   
                   2.3972278E-06     3.7887691E+00     5.4366541E-06    -1.6506692E+02     3.7254479E-06     1.2113956E+02     2.0398500E-06     1.7067457E+02   
                   8.2599300E-07     1.0476926E+01     8.0746831E-08     1.3188345E+02     1.6178231E-06    -3.3925030E+00     2.6261392E-06    -7.6643502E+01   
                   1.0208510E-01     1.7999997E+02     3.9656978E-06     8.9131318E+00     2.9989273E-06     8.0416218E+01     1.0061511E-05     1.7536360E+02   
                   3.3482193E-06     9.2411432E+01     4.3039275E-06    -9.9804681E+00     2.9236630E-06     1.1935193E+01     2.5753897E-06     1.0442272E+02   
                   5.4100362E-06    -5.6007964E+01     9.4806873E-07    -3.3315473E+01     1.1992397E-06    -1.5053992E+02     7.3514292E-01    -1.7999996E+02   
                   2.4377081E-06    -8.2555680E+01     4.3288450E-06    -1.7791012E+02     2.9349050E-06    -1.0830487E+02     2.7117318E-06     1.7130956E+02   
                   2.8760913E-06     1.7588757E+02     1.5267140E-06     7.6945126E+01     5.6757920E-06    -4.9068947E+01     1.3880573E-06     5.8081370E+01   
                   6.9204906E-07     3.6144638E+01     4.0449084E-02     1.7999949E+02     3.2202356E-06     5.3702786E+01     5.8441686E-06     1.7391171E+02   
                   1.0991964E-06     1.4501686E+02     4.4845924E-06     6.3918724E+00     7.4222719E-06    -1.7742446E+02     1.2411585E-06     1.0110395E+02   
                   1.5830689E-06    -1.7929189E+02     3.2716793E-06     1.7442966E+02     1.6712226E-06    -8.4466341E+01     2.1128842E-07    -6.9549284E+01   
                   7.3851310E-01     1.7992586E+02     5.1764725E-07    -9.8176944E+01     2.3553285E-07     1.2969011E+02     4.6585988E-07     1.8354932E+01   
                   1.1681907E-07     1.3731171E+02     2.2339324E-06     2.1070501E+01     2.3106161E-06    -1.3458655E+02     2.1200925E-06     1.6877937E+02   
                   1.0423157E-06     5.2953127E+01     1.4586532E-06    -1.5008557E+02     1.0612505E-02     1.7328944E+02     6.4357120E-07     6.3218880E+00   
                   1.0157668E-06    -7.5093745E+01     1.4006110E-06    -1.4628345E+02     3.2098204E-07     2.6810665E+01     2.3765650E-06    -8.6688955E+00   
                   2.9721607E-06     1.1432528E+02     2.1968280E-06    -1.3732484E+02     8.5648161E-06    -1.3545498E+01     5.3393968E-06    -2.0110805E+00   
                   2.5395353E-06     6.0436309E+01     6.9527483E-01     1.1845945E-06     1.8956346E-06     5.8077106E+01     5.2686800E-05     6.2047483E-01   
                   2.3298267E-06    -9.5473562E+00     1.3012948E-06    -6.4874357E+01     3.2681318E-06     1.4746015E+02     2.5012865E-06     5.4535935E+01   
                   9.6823696E-06     1.7775472E+02     5.7678493E-06    -1.7729843E+02     2.1117692E-06    -5.8480557E+01     7.5274279E-02     1.7999798E+02   
                   6.4352329E-07    -1.2919422E+02     6.0763628E-05     1.7985133E+02     5.7099573E-06     5.8977383E+00     2.8880859E-06    -1.3048451E+02   
                   2.9287475E-06    -1.7854052E+02     3.1280837E-06     1.4917760E+02     4.0374773E-06    -1.0969100E+02     9.0874381E-07     7.5052451E+01   
                   3.7489274E-07     2.1102197E+01     1.3024915E-06    -6.2143721E+01     6.2735861E-01     1.3256378E-04     1.1894217E-06     1.2054226E+02   
                   2.2676013E-06    -1.5731773E+02     9.2499408E-07     1.0784129E+02     1.3193764E-06     1.3232713E+02     4.4225471E-07     1.3627306E+02   
                   2.5901234E-06     1.6536000E+02     4.3137919E-06    -1.5348036E+02     1.6322720E-06     8.8121052E+01     2.2144764E-06    -1.6391070E+02   
                   1.9650090E-02    -1.7999998E+02     5.6607471E-07     1.0823637E+02     6.1534450E-07    -1.6006659E+02     1.1597510E-06     9.3198381E+01   
                   1.9776165E-06    -5.7015209E+01     2.0136738E-06    -1.5299824E+02     5.2821305E-06     1.7181279E+02     2.8823153E-06    -1.6667893E+02   
                   8.0935771E-07     1.6213127E+02     5.4052677E-05     1.7968627E+02     3.8910257E-07    -3.7536568E+01     6.0428814E-01     1.7999993E+02   
                   2.0362627E-06     1.7979192E+02     1.6578151E-06     1.2630806E+01     1.9809330E-06    -2.1196215E+01     1.9482688E-06     5.6477244E+01   
                   3.7388182E-06    -8.7841090E+00     5.5977324E-06    -2.0763166E+01     7.6975178E-07    -8.0076769E+01     6.2575416E-05     1.7993672E+02   
                   1.9706265E-06     1.0970568E+02     7.4068849E-02     1.7999930E+02     5.4181921E-06     1.6160106E+02     2.5054332E-06    -3.5831915E+01   
                   3.6951182E-02    -3.7689523E+01     1.8903285E-06     8.1920218E+01     3.6044967E-06     1.7177360E+02     4.7262518E-06     2.3145000E+00   
                   2.0527012E-06     1.1036243E+01     3.6745589E-06     3.1687548E+00     2.2058633E-06     6.2249876E+01     3.6015619E-06    -6.7729545E+00   
                   6.1104762E-01     8.1270860E-02     3.5829167E-07    -1.1793500E+02     3.7222266E-02    -6.1621583E+01     2.5410485E-06     1.3166142E+01   
                   2.2348365E-06    -7.6374983E+00     7.8704275E-06     1.7662925E+02     4.5551268E-07    -1.7952014E+02     5.1294060E-06    -1.3190618E+00   
                   8.1162791E-07    -1.1096003E+02     6.0591781E-06     1.7149687E+02     2.8101385E-02    -1.7719494E+02     8.6641407E-07     1.2455742E+02   
                   9.1296406E-07     9.7869961E+01     2.8362082E-02     1.6670747E+00     4.0764420E-06    -7.4963488E+01     1.5211845E-06    -1.4483595E+02   
                   2.2736076E-06    -1.1988769E+02     1.2922248E-06    -6.7079816E+01     1.2321041E-06     9.0925295E+01     6.0263041E-07     1.0713258E+02   
                   2.2823018E-07     9.7907789E+01     5.9842689E-01     3.6629538E-02     6.1801233E-07    -1.2306806E+02     3.3835260E-02     1.1062296E+02   
                   3.3327802E-06     1.0683602E+02     4.4411363E-07     9.3810213E+01     4.8044624E-06     1.3019389E-01     1.8336933E-06    -7.7511348E+01   
                   2.7073704E-06     9.1938574E+01     8.5874597E-07    -7.6101534E+01     1.4255483E-06     1.6422769E+01     1.7474734E-02     1.7680157E+02   
  6.1764706E+09     5.3707165E-03     1.5613563E+02     1.8745556E-05     1.3921690E+02     4.7833509E-06     1.1722258E+02     3.5762036E-06     1.3084213E+02   
                   6.6443326E-06     9.9261639E+01     4.3551113E-06     1.1814170E+02     4.2650499E-06    -1.5100960E+02     4.4241099E-06    -9.6595953E+01   
                   2.5515633E-02     1.1336246E+02     2.2377703E-06    -1.3015377E+02     9.9999153E-01    -1.0240577E+01     9.9726141E-06    -3.8738586E+01   
                   5.3736723E-06    -1.1741743E+01     5.0039155E-06    -8.1797397E+01     5.9722395E-06    -7.5942457E+01     2.9679135E-06     1.1669937E+02   
                   1.0226936E-05    -1.4975980E+02     6.5166094E-06    -1.4457924E+02     3.5908375E-02    -3.7240556E+01     4.4792418E-06    -6.3382989E+01   
                   4.9503886E-06     1.3955769E+02     2.3879063E-01    -4.8057494E+00     6.3476830E-06    -1.4196293E+02     2.0933119E-06    -4.0167726E+01   
                   8.8115527E-06    -7.7148068E+01     2.0648462E-06     1.3164400E+02     4.4686355E-06    -5.4333937E+01     3.4897936E-06    -1.1782784E+02   
                   3.4907223E-06    -1.4482446E+02     2.5181047E-02    -9.5693170E+01     5.0117583E-06    -1.4595699E+01     9.7107504E-01    -5.0170856E+00   
                   5.6730112E-06    -1.6493282E+02     2.3913386E-06     1.5957545E+01     1.8969055E-06    -1.3243146E+02     3.2986332E-06     1.6121397E+02   
                   7.8072421E-06     2.7249499E+01     9.1121596E-07     7.9013352E+01     2.7088847E-06     6.2131354E-01     3.1777145E-02     6.8149402E+00   
                   3.2800561E-06    -1.5818594E+02     1.0367418E-05    -6.3203275E+01     8.8703339E-02    -7.8315422E-04     3.6839578E-06     5.4057688E+01   
                   1.0824987E-05    -6.2630298E+01     3.7268646E-06    -7.8541090E+00     1.0548152E-05     3.0653317E+01     5.0014611E-06    -2.2866159E+01   
                   2.8576964E-06    -1.7874460E+02     8.9306732E-06    -1.6371544E+02     2.6698455E-06    -7.1580416E+01     1.3496442E-05    -1.7735428E+02   
                   8.2870580E-01    -1.7999993E+02     7.4188813E-06     9.5719169E+01     4.2764311E-06     6.0896680E+01     5.7821190E-06    -5.3354152E+00   
                   1.4735760E-06     1.6096845E+02     1.0094269E-05    -1.3577738E+02     6.0522945E-06    -3.4857228E+01     6.4216373E-06     8.3916363E+01   
                   1.5597326E-06     1.0199717E+02     1.5993865E-05     8.6920025E+00     3.7008262E-06    -6.1283479E+01     2.6269909E-02     3.0086785E-03   
                   1.8011823E-05    -1.0571201E+02     3.8963298E-06    -3.2338561E+01     5.3649425E-06     1.1229350E+02     4.6293300E-06    -4.9443726E+01   
                   8.9658004E-06    -3.1988226E+00     5.2043650E-06    -1.5262452E+02     7.8092384E-06     1.3656493E+02     1.4894200E-05     1.3262001E+02   
                   1.8783134E-06    -2.1651406E+01     7.3970987E-01     1.7999978E+02     9.6917685E-06     2.8594710E+01     3.2936346E-06    -8.3959051E+00   
                   2.4604051E-06     1.6414535E+02     5.6973470E-06     1.5894079E+02     1.2326909E-05     1.9718041E+01     1.3784964E-05     1.3969988E+02   
                   2.4503306E-06    -1.2254451E+02     3.1561629E-06     1.5825427E+02     1.3955159E-06    -2.7334908E+01     4.9160602E-07    -1.4570683E+02   
                   1.3307277E-03     3.4889247E+01     3.3922535E-06     6.8692732E+01     3.1924341E-06    -7.4551055E+01     2.1508637E-06    -1.5805337E+02   
                   1.1090069E-06     4.9829325E+01     3.7590889E-06     9.9277989E+01     7.2485619E-06     1.0720276E+02     2.0539480E-05     2.2235807E+01   
                   4.3338784E-06     9.7894019E+01     4.1478143E-06     1.0143947E+01     7.4340763E-01     1.7992481E+02     2.3627280E-06     1.2885901E+02   
                   2.8693574E-06     4.3926211E+01     1.0916719E-06    -7.0989453E+00     5.1943521E-06    -9.2175538E+01     7.5000794E-06    -3.7879710E+01   
                   7.0196642E-06     1.0472917E+02     8.3206112E-06    -1.1264833E+02     6.5483153E-06     2.7765531E+01     1.7635053E-06     5.0401269E+00   
                   5.4227630E-06     2.8823593E+00     5.2362174E-02     3.7229141E-03     4.0313877E-06     1.7766547E+02     4.2911675E-05     2.5779176E+00   
                   3.4078232E-06    -1.1805892E+02     5.8311060E-06    -1.4659353E+02     6.9374807E-06     1.1381244E+02     3.6688304E-06     3.9657196E+01   
                   8.5861149E-06    -1.4838799E+02     7.5226402E-06     1.7541834E+02     3.6435497E-06     1.3366331E+01     6.9907690E-01     8.4978276E-05   
                   2.9320864E-06     4.6368657E+01     5.3875816E-05    -1.7731683E+02     3.8914227E-06    -2.5953464E+01     5.6134888E-06    -4.5468606E+01   
                   3.4894786E-06    -1.5085607E+02     9.5207851E-06     3.1363981E+01     5.3563531E-06     5.5242270E+01     2.6121472E-06     9.4530454E+01   
                   4.0402526E-06    -5.4882661E+01     2.1824739E-06    -2.0762642E+01     6.2324302E-03     5.6267775E-02     4.9897742E-06     6.9188783E+01   
                   1.8630927E-06     1.7656836E+02     4.3682434E-06    -1.5965345E+02     3.7419995E-06    -1.4179725E+02     3.9587510E-06    -1.2792062E+02   
                   3.2235142E-06    -1.5010863E+02     2.9704888E-06     1.2907409E+02     5.6080735E-06     1.2816505E+02     3.6407643E-06     1.3263463E+02   
                   6.3016231E-01     9.4911611E-05     2.9953739E-06    -8.3278336E+01     3.4221173E-06     1.4992014E+02     5.1400646E-06    -1.6719936E+02   
                   1.8029752E-06     3.9266633E+01     2.6099966E-06     4.0132235E+01     6.3644508E-06     4.4830182E+01     2.5393791E-06    -9.7519001E+00   
                   5.1182061E-06     3.4598439E+01     4.3108830E-05    -9.2906803E-01     3.0775238E-06     1.5845405E+02     4.5766232E-02     3.2658136E-03   
                   6.5837088E-07    -9.1238707E+01     4.8833045E-06    -1.4481268E+01     3.9105470E-06     1.5091565E+02     8.8739715E-06    -4.3880227E+01   
                   3.3614649E-06     1.3702013E+02     5.5416462E-06    -1.7378162E+02     7.4219875E-06    -2.7221995E+01     5.1458779E-05     1.8027032E+00   
                   2.9248583E-06    -3.7764484E+01     6.0669226E-01     1.7999984E+02     2.1590610E-06    -5.0051794E+01     5.1509563E-06    -1.1862975E+02   
                   2.5514071E-02     1.1337073E+02     3.1439139E-05     1.2297487E+02     7.7253845E-06    -1.6231890E+02     3.9122165E-06    -5.4961348E+01   
                   8.8627103E-06     9.2939492E+01     7.3190319E-06     7.4118224E+01     7.3116079E-06    -1.3010496E+02     6.2448942E-06    -1.2782764E+01   
                   1.9267254E-02    -1.9537342E+00     5.8484013E-06     3.3447777E+01     2.5639101E-02     1.4628814E+02     1.8160136E-05    -5.9206692E+01   
                   9.1139250E-06     6.8618399E+01     5.7685390E-06    -1.2291434E+02     1.1893156E-05    -1.6431893E+02     3.2066467E-06     1.9044997E+01   
                   8.9397829E-06    -6.1155373E+01     3.3718538E-06    -1.1179520E+02     6.1343649E-01     7.4414773E-02     1.6485002E-05    -2.1626138E+01   
                   3.3480858E-06     1.1134648E+02     2.5185840E-02    -9.5665188E+01     3.6819998E-06    -6.5196875E+01     2.3258704E-06    -8.5116055E+01   
                   6.0050801E-06    -1.4132704E+02     8.6422760E-07     3.4353402E+01     4.3968986E-06     4.0031861E+01     1.4581976E-06     1.4940367E+02   
                   2.1182906E-06    -1.1668704E+02     1.1655926E-02     3.2245373E+00     5.5850128E-06    -7.6119040E+01     2.5974936E-02     1.6695911E+02   
                   3.2322569E-07    -1.0402399E+02     2.1360828E-06     1.3675154E+01     6.9583841E-06     1.0595467E+02     1.1104348E-06    -1.3744783E+02   
                   1.1755505E-06     7.6807705E+01     5.1342561E-06    -1.4905117E+02     1.3087392E-06     8.3605048E+00     6.0075254E-01     1.9160773E-03   
                   9.9998548E-01    -1.0240784E+01     2.8871070E-06     1.2294792E+02     1.6548086E-06     1.1496292E+02     3.5612005E-06     1.3248918E+02   
                   1.6703025E-06    -1.5258841E+02     2.3555078E-06     1.4083204E+02     1.6779351E-06     1.7812177E+02     1.8615969E-06     1.7921658E+02   
                   2.5644341E-02     1.4628686E+02     1.2755248E-06     1.0753727E+02     5.3713801E-03     3.4004181E+00     5.6195433E-06     6.6910397E+01   
                   2.1553370E-06    -2.4440072E+01     5.6842115E-06    -4.5287980E+01     1.2335227E-06     7.8818078E+01     3.1470064E-06     1.0437196E+02   
                   1.7143845E-06     1.7244671E+02     2.2191184E-06    -3.2893766E+01     3.6061398E-02    -6.2811621E+01     1.5872816E-06     1.2942321E+02   
                   1.8320084E-06    -1.1307417E+02     9.7106773E-01    -5.0174349E+00     1.8804267E-06    -4.1859734E+01     7.6268709E-07     1.2662490E+01   
                   2.9024829E-06     9.9924127E+01     1.9603439E-06     1.0331906E+02     1.6155128E-06     1.5811135E+02     1.1508652E-06     1.4683863E+02   
                   3.5136169E-08     1.3193441E+02     2.5970423E-02     1.6695802E+02     5.2974970E-07     1.1253093E+02     2.3879718E-01     1.7476971E+02   
                   1.3654395E-06    -6.9142569E+00     1.8060431E-06    -9.1803063E+01     1.5261580E-06    -9.5781833E+01     1.7055432E-06     6.1729452E+01   
                   9.9223050E-07     8.6007461E+01     1.4583048E-06    -1.7142863E+02     5.3082578E-07    -9.3819210E+01     3.1145386E-02     9.1940488E+01   
                   1.0606335E-06     1.2098090E+02     1.4990294E-06    -1.6043294E+02     8.2870139E-01    -1.7999968E+02     3.0926744E-06    -1.0403426E+02   
                   2.7458281E-06     1.2636587E+02     6.8908908E-06     1.6753507E+02     5.4876355E-06    -1.1522124E+02     3.2207347E-06     1.6914775E+02   
                   2.1334733E-06    -2.1378996E+00     3.4154178E-06    -1.1643157E+02     1.5740918E-06    -8.0831089E+01     1.0315584E-06     1.6068466E+01   
                   1.1174388E-01     1.7999845E+02     4.2130399E-06    -3.7060162E+01     2.5997391E-06     1.6506541E+02     1.0387049E-05     1.7398814E+02   
                   3.0263433E-06     1.1210467E+02     3.7574148E-06     1.3173091E+01     2.4556744E-06     5.9193598E+01     2.4677648E-06     1.3453499E+02   
                   5.0838397E-06    -4.9985183E+01     4.8701724E-06    -8.8599400E+01     1.9084837E-06    -1.7500660E+02     7.3971355E-01     1.8000000E+02   
                   8.8327318E-07    -8.0705969E+01     4.1313647E-06     1.7365246E+02     1.4144484E-07    -1.1958519E+02     3.3806879E-06     1.6488750E+02   
                   3.2078640E-06     1.7121757E+02     2.0449520E-06    -1.3772986E+02     4.8691490E-06    -5.1230093E+01     2.3785189E-06    -1.1939974E+01   
                   2.7994144E-06    -1.1697520E+01     4.2337935E-02    -1.7999974E+02     1.5270642E-06    -7.8394363E+01     6.1952268E-06     1.7928967E+02   
                   8.3815541E-07     6.0467524E+01     5.2497804E-06    -4.5257567E+00     7.4226102E-06    -1.7749837E+02     1.4146959E-06    -9.7372856E+01   
                   1.8257784E-06    -1.2213492E+02     2.4109362E-06    -4.9271343E+01     2.4227052E-06     6.0155958E+01     4.7708753E-07     1.3084869E+02   
                   7.4341538E-01     1.7992437E+02     9.3460374E-07    -6.5442402E+01     1.0693452E-06     1.5509935E+02     7.3610352E-07     2.7382103E+01   
                   7.8587642E-07     1.1370995E+02     2.4425117E-06    -4.7705831E+01     4.3269183E-07     1.6845368E+02     3.8292725E-06     8.4291557E+01   
                   3.4965149E-06    -1.7042274E+02     1.5802348E-06     1.5316391E+02     9.1318278E-03     1.7204039E+02     2.3082216E-06    -4.4963577E+01   
                   1.6097839E-06    -1.4914003E+02     4.5743353E-07     3.7114642E+01     1.3759494E-06     1.0543031E+02     4.3433187E-06    -1.6026007E+01   
                   3.6200245E-06     1.0215540E+02     4.8466832E-06    -1.4677186E+02     5.5498335E-06    -2.9929319E+00     2.7303792E-06     1.4734732E+00   
                   2.0748414E-06     1.3187334E+02     6.9907934E-01    -3.9169515E-05     7.8062944E-07     1.5366721E+01     5.3557203E-05     2.3617211E+00   
                   2.7366615E-06     5.8446701E-01     1.1047348E-06     1.7949759E+02     4.7788868E-06     1.2730081E+02     1.5874722E-06     1.0297855E+02   
                   6.8824154E-06    -1.7500231E+02     5.0906557E-06    -1.6847219E+02     7.4560081E-07     6.7036619E+01     7.6601751E-02     1.7999940E+02   
                   1.1408341E-06    -1.4713793E+02     6.1912579E-05    -1.7924206E+02     4.5169897E-06     2.5244191E+00     2.3438272E-06    -8.7787154E+01   
                   4.3081897E-07     8.6004204E+01     3.2886807E-06    -5.4644867E+01     2.8797732E-06    -1.6027119E+01     1.7198833E-06     1.1462080E+02   
                   1.1533377E-06    -1.5317511E+02     1.5885686E-06    -6.6784669E+01     6.3015930E-01    -5.0666750E-05     9.2036512E-08    -2.1431450E+00   
                   3.2463536E-07     1.0150253E+02     9.4303763E-07    -1.3973411E+02     2.5084972E-06    -1.1952622E+02     3.0381145E-06     1.5520383E+02   
                   4.4738240E-07    -9.8265501E+01     1.6304366E-06    -1.7000884E+02     2.8013276E-06    -1.7129567E+02     2.1856584E-06     1.1412417E+02   