! S-parameter export from POSTFEKO
! Filename: circular_2wg_10modes_discont
! Creation date: 2020-03-06 09:42:27
! 
# Hz S MA R    5.0000000E+01 
  6.0000000E+09     8.8736171E-03     1.6032571E+02     3.4525313E-06    -4.4536747E+01     1.1252839E-06     5.1697977E+01     2.1009822E-06    -1.3905237E+02   
                   1.2754458E-05     1.1179054E+01     1.8354965E-06    -8.7506284E+01     3.9253620E-07     1.2427992E+02     1.1452708E-06    -5.1671821E+01   
                   2.6116474E-02     1.1466140E+02     1.9089149E-07     1.0087693E+02     9.9996237E-01    -9.6000674E+00     3.8218863E-06    -2.7555436E+01   
                   1.0655093E-06    -7.8109585E+01     6.9461269E-07     1.6802611E+02     1.4982384E-05    -1.5587738E+02     2.9435943E-06    -9.8729721E+01   
                   3.2701541E-06    -5.9155534E+01     3.1331476E-06    -2.5135641E+00     3.6854808E-02    -3.7609648E+01     8.5238398E-07    -1.6387261E+02   
                   9.7146009E-07    -1.2887470E+02     4.6009057E-01    -2.2869532E+00     4.2731524E-07     8.6522368E+01     5.7590619E-06    -1.8179145E+01   
                   1.7891628E-06    -1.7506930E+01     6.1219575E-07     1.4082958E+02     5.0941273E-07    -6.3296294E+01     7.3744804E-07     1.3955476E+01   
                   1.1673645E-06    -1.6241740E+02     2.2845952E-02    -8.8065016E+01     6.8639588E-07    -4.5263744E+01     8.8787100E-01    -3.3030855E+00   
                   1.3996004E-07    -1.7284297E+02     1.1513680E-05     1.5748648E+02     1.1070525E-06     1.6729543E+02     5.5988930E-07    -1.3876757E+02   
                   1.8366460E-06    -7.6809023E+01     6.4722712E-07    -2.8746785E+01     2.5647731E-06    -1.2514942E+02     2.8433634E-02     1.5831173E+00   
                   1.1004884E-06    -6.1181828E+01     4.8005327E-06    -5.6764169E+01     8.0227993E-02    -1.1863653E-04     1.3953935E-06    -5.9310747E+01   
                   2.5890477E-06    -7.3253015E+01     4.6907921E-06    -1.6387386E+02     2.2565519E-05     9.4285234E+01     5.1779882E-07    -1.0774101E+02   
                   2.0928563E-06    -1.1950309E+02     5.6177849E-07    -6.7849184E+00     9.6643148E-07    -4.9359082E+01     1.1391720E-06     1.2301857E+02   
                   8.2096694E-01     1.7999990E+02     2.3798401E-06     2.8524168E+01     6.9356553E-07     5.7619631E+01     4.7013324E-06    -1.4900873E+02   
                   2.8719391E-05     9.2165048E+01     2.3753744E-06    -1.5327893E+02     2.2910525E-06    -1.4403953E+02     3.9430342E-06     8.1070184E+01   
                   2.4165159E-06    -3.8317725E+01     3.7861331E-06    -4.6122534E+01     2.9101537E-06     2.9098189E+00     2.4819436E-02    -4.1443346E-03   
                   1.8114281E-06     2.6777701E+01     3.9348586E-06    -1.7709629E+02     1.4633745E-06    -1.7588475E+02     7.0239937E-07    -4.8698179E+01   
                   4.2241634E-06    -1.7074543E+02     9.0694861E-06     9.5895424E+01     1.1703354E-06    -6.0304832E+01     3.1439644E-06    -8.3954202E+01   
                   1.9176827E-06     2.8057136E+01     7.3502829E-01     1.7999991E+02     1.1075854E-06    -1.1883471E+02     1.7414494E-06    -1.2024195E+02   
                   3.2658005E-06    -5.8108523E+01     3.2364982E-06    -1.2302556E+02     4.6302946E-06    -1.3557877E+02     1.4653837E-05     8.6505143E+01   
                   1.2406375E-05     5.5247817E+01     1.8963703E-06    -1.5905294E+02     4.7495509E-07     1.3655790E+02     9.3535431E-07    -2.4065024E+01   
                   2.4320577E-03     1.7476585E+01     1.2139012E-06    -9.3898458E+01     4.3943067E-07     5.6521125E+01     3.5347907E-06    -1.1751986E+02   
                   2.6238008E-06    -1.1454150E+02     3.4599291E-06    -2.6422616E+01     1.0889292E-05     5.3986432E+01     1.9366914E-06     5.1929411E+01   
                   3.0058238E-06     5.6201870E+01     3.0437673E-07     8.3981386E+01     7.3829576E-01     1.7992628E+02     7.1784878E-07     8.3671205E+01   
                   1.9202332E-06     1.4201239E+02     2.8508705E-06     1.0153878E+02     1.9222064E-05    -9.1031172E+01     2.4396865E-06    -6.2406931E+01   
                   2.8580440E-06     7.1859750E+01     1.8724473E-06    -1.7508081E+02     3.7932344E-06     1.5774027E+02     1.4589596E-06    -1.4111006E+02   
                   3.7130422E-06    -4.3473122E+01     5.1142008E-02     5.7363329E-04     3.6629991E-06    -9.7817468E+01     3.2620202E-06    -1.7761888E+01   
                   2.5109110E-06     1.3663975E+02     2.3576871E-07     4.1218790E+01     1.4871824E-06    -7.1262738E+01     1.4189020E-06     3.2390665E+01   
                   5.5917970E-06    -1.1788543E+01     3.9700084E-06     2.4543697E+00     1.1544996E-06     1.0900260E+02     6.9532303E-01    -3.1069853E-05   
                   2.0184746E-06     8.4804855E+01     6.7171408E-06    -1.7537273E+02     7.4593477E-07    -1.4125581E+02     2.1513140E-06     6.2433201E+01   
                   3.8552610E-07    -1.8476857E+01     1.6876814E-06     1.1262574E+02     1.7928232E-05     8.8825324E+01     6.8978683E-07    -1.2579987E+02   
                   1.5262372E-06     1.5926397E+02     1.5907623E-06    -1.3732312E+02     6.4569044E-03     8.2498605E-03     2.4302935E-06     4.5806168E+01   
                   1.4935805E-06     1.5233656E+02     5.7941634E-07    -1.2660989E+02     1.5759504E-06     3.7009853E+01     1.3783470E-06    -8.4423203E+01   
                   2.3158962E-05    -8.3749263E+01     3.6981860E-06     9.5826094E+01     3.8579298E-06    -1.4243921E+02     4.5156492E-06    -8.6845241E+01   
                   6.2701896E-01     7.7613077E-05     2.2200619E-06    -2.0746145E+01     1.1259853E-06     9.6972375E+01     2.6607728E-06     1.2520945E+02   
                   2.0338364E-06     7.3342128E+01     4.3246891E-07     6.8027619E+01     9.4602168E-07     8.0304998E+01     8.2617961E-07     1.7328804E+02   
                   4.4456847E-06    -1.2712246E+02     3.5682182E-06    -3.9620751E+00     1.6178463E-06     5.5629635E+01     4.5164707E-02     4.5995146E-04   
                   1.8552423E-06     2.7011092E+01     1.8804622E-07     1.2390300E+01     2.0807990E-06     2.4721639E+01     1.4169233E-06    -2.6965443E+01   
                   7.6328427E-07    -5.7281846E+01     1.2734435E-06     1.7701568E+02     5.2886604E-06    -1.2950489E+02     2.8250049E-06     3.2499680E+00   
                   1.6966199E-06     8.7699733E+00     6.0433521E-01     1.7999993E+02     1.8087264E-06    -1.5241145E+02     1.0827077E-06    -1.2224326E+02   
                   2.6114811E-02     1.1467295E+02     2.4290153E-06    -1.6911834E+02     2.4026277E-06     7.3588604E+01     5.1212606E-06    -1.7756932E+02   
                   9.9370819E-06    -1.0541513E+02     3.7357048E-06    -1.5922662E+02     1.7820773E-06     1.2426708E+02     1.1565764E-06    -3.2220360E+01   
                   1.8854251E-02    -2.0928991E+00     2.4995041E-07     4.1984853E+01     2.6327801E-02     1.4556589E+02     6.9364607E-07    -1.4748934E+01   
                   5.0200919E-06     5.1681753E+01     8.3435884E-07    -1.8757843E+01     7.6414787E-06     1.1102507E+02     5.4649140E-06    -6.8154905E+01   
                   1.2861710E-06     1.7446265E+02     3.8981609E-06    -7.5909363E+01     6.1071444E-01     8.0193189E-02     1.4526313E-06    -1.3369352E+02   
                   1.0998368E-06     4.9301396E+01     2.2843080E-02    -8.8069839E+01     3.4585157E-06     1.0036937E+02     7.2245215E-06     9.7587856E+01   
                   3.1284589E-06    -2.6814604E+01     2.1094369E-06     1.4785950E+02     4.5220873E-07     8.4878057E+01     2.1656023E-06    -1.7053386E+02   
                   3.3575549E-06     1.5502096E+02     1.1808895E-02     3.3693840E+00     1.3629083E-06    -1.1268516E+02     2.9457545E-02     1.5120808E+02   
                   9.9047568E-07     1.3929092E+01     1.7638204E-05    -8.8378199E+01     1.2677327E-06    -1.6941488E+02     3.7491283E-06     1.1988522E+02   
                   2.8074788E-06    -1.3440688E+02     1.6011914E-06    -1.5669951E+02     3.9790272E-06    -7.3862165E+01     5.9800540E-01     3.6414471E-02   
                   9.9995961E-01    -9.6000924E+00     5.5756021E-06    -3.6012788E+01     1.2641502E-06    -9.5342873E+01     3.5912018E-07     8.1265331E+01   
                   1.2713763E-05     4.2580393E+01     1.5449195E-06    -6.1946405E+01     1.4259881E-06     5.0311037E+01     1.2361508E-06    -1.2543628E+02   
                   2.6334877E-02     1.4555830E+02     7.1142247E-07    -3.9228766E+01     8.8728584E-03     4.9449083E-01     6.9861346E-07    -3.6197447E+01   
                   1.5372105E-06     8.5618860E+01     7.4509527E-07     1.0331718E+02     1.2718976E-05    -1.2970311E+02     9.9313061E-07    -4.7598136E+01   
                   1.8140838E-06    -9.3531848E+01     1.5536438E-06     2.7406863E+01     3.7123391E-02    -6.1707345E+01     5.5064067E-07    -7.3846150E+01   
                   1.7581283E-06     4.9949461E+01     8.8787202E-01    -3.3029582E+00     1.0144426E-06     1.5896095E+02     6.4546594E-06    -9.8744354E+01   
                   1.7257653E-06     1.2133503E+02     1.6274354E-06     7.1426000E+00     2.8737073E-06     1.5957988E+02     1.2022497E-06    -1.1899699E+02   
                   7.9784019E-07    -3.4665447E+01     2.9453498E-02     1.5121000E+02     3.3653804E-07     1.7802141E+02     4.6009043E-01     1.7568097E+02   
                   2.0799423E-07     2.8225892E+01     1.0905706E-05     8.6021140E+01     1.0867239E-07    -9.0537300E+01     1.4077774E-06     1.3121733E+02   
                   1.0416240E-06     1.5587664E+02     1.3529726E-06    -1.7528325E+02     4.0304000E-06     4.9555713E+01     3.3954157E-02     1.1070592E+02   
                   3.1750366E-06     1.2590125E+02     4.9050578E-06     9.7505272E+01     8.2096565E-01     1.7999994E+02     1.5764984E-06     7.1779104E+00   
                   1.2978913E-06     1.1107981E+02     6.3764325E-06     1.4186542E+01     2.3868602E-05    -9.0832352E+01     2.5047316E-07    -4.5990268E+01   
                   1.4058208E-06    -2.3253299E+01     1.6608854E-06    -1.5066823E+02     1.3416555E-06    -1.6579310E+02     1.5725385E-06    -1.2882806E+01   
                   1.0191705E-01    -1.7999881E+02     1.5582361E-06    -1.4478893E+02     1.0138620E-06     8.7328586E+01     5.9684408E-06     1.3299452E+01   
                   2.8910982E-05    -8.8586793E+01     1.9307741E-06     1.2668646E+01     1.6939965E-06    -8.0842932E+00     3.1431379E-06    -9.1393601E+01   
                   7.0323477E-07     5.2333201E+01     1.1247872E-05     1.4324773E+02     9.8842471E-07    -4.3323619E+01     7.3503051E-01     1.8000000E+02   
                   1.6861807E-06    -6.1083389E+01     3.2672828E-06    -6.0305648E+00     2.3129382E-06     7.7170095E+01     7.0505734E-07    -1.3008237E+02   
                   2.2979173E-06     2.6604017E+00     2.0489857E-05    -8.7970113E+01     5.4245777E-07     3.1605541E+01     8.2228759E-06     1.0935660E+02   
                   1.4967317E-06     1.2857759E+02     4.0255085E-02    -1.7999915E+02     1.1477801E-06    -6.7411463E+01     3.1033296E-06    -1.0738772E+01   
                   1.2119291E-06     1.0136913E+02     1.8480443E-06    -1.7989779E+01     3.6149144E-06     5.9721657E+00     3.0055039E-05    -8.9408176E+01   
                   1.4425764E-05    -1.5067525E+02     3.3042654E-06     5.7626478E+01     5.5596680E-07     7.9510400E+01     1.0825326E-06    -6.7630949E+01   
                   7.3830070E-01     1.7992597E+02     8.9939237E-07    -6.7260957E+01     1.6830018E-06     3.4810868E+01     2.3969399E-06    -8.1580928E+01   
                   7.0167580E-06     8.3111066E+01     1.1781196E-06     1.5179769E+02     1.3049432E-05    -1.2907394E+02     9.9434021E-07     1.6570599E+02   
                   1.0378105E-06    -7.5792627E+01     8.3087292E-07     8.4818092E+01     1.0580085E-02     1.7324254E+02     1.2152218E-06    -4.0375942E+01   
                   2.9972040E-06    -1.3341895E+02     1.9689968E-06     6.5876492E+01     3.0313212E-05     9.0303081E+01     2.4272358E-06     1.6713626E+02   
                   3.5166258E-07     1.4232793E+02     1.3534949E-06    -1.7454372E+02     2.9613082E-06    -1.7833500E+02     2.1970165E-06    -1.4354040E+02   
                   1.8265548E-06    -1.3025690E+02     6.9532123E-01    -6.9089698E-05     4.1387015E-06    -1.0197265E+02     4.1193852E-06    -1.6193520E+01   
                   7.0137196E-07    -1.3000294E+01     8.1777114E-07     2.8891227E+01     8.8028098E-07     7.0542470E+01     2.1666849E-06     2.1828647E+01   
                   5.3211151E-06     1.2725821E+01     4.8683688E-06     1.0100819E+01     7.1033709E-07     2.6351467E+01     7.5042975E-02     1.7999991E+02   
                   1.3414086E-06     4.0773022E+01     6.1569228E-06    -1.7126212E+02     1.7846812E-06     1.7426904E+02     3.6067245E-06     6.9487194E+01   
                   3.4306047E-07    -3.0365442E+00     1.4199722E-06     7.5018131E+01     2.2198238E-05     9.2990483E+01     2.1721770E-06    -9.6603263E+01   
                   9.7603161E-07     1.3643222E+02     3.2131421E-06     1.0323613E+02     6.2701891E-01     7.3269883E-05     1.0660951E-06     2.9817860E+00   
                   8.4225908E-07     1.1230993E+02     2.0574011E-06    -1.7384330E+02     4.6469495E-07    -1.3958311E+02     8.4084580E-07    -1.0768861E+02   
                   2.8457590E-05    -9.1193296E+01     2.1669126E-06     8.7538712E+01     2.4897730E-06    -1.6266321E+02     9.8237849E-07     8.2248931E+01   
                   1.9634399E-02    -1.7999970E+02     2.2675686E-06     6.1643416E+01     1.1650468E-07    -4.2162592E+01     1.8573671E-06     6.9780077E+01   
                   2.8484536E-06    -7.2887687E+01     2.2393700E-06    -8.8464832E+00     2.2164359E-06     1.6702283E+02     8.9211271E-07     1.6296536E+02   
                   3.4946240E-06     8.9557630E+01     4.4140361E-06     1.7848106E+02     1.6538498E-06    -7.8261522E+01     6.0433389E-01     1.7999999E+02   
                   8.3884385E-07     4.3216036E+00     8.8803851E-07    -4.7788840E+01     1.1711773E-07     5.0041607E+01     3.0980265E-07    -7.4491509E+01   
                   2.7138394E-06     1.4748412E+01     7.0859817E-07     1.1769687E+01     2.2915735E-06     1.5903420E+01     5.6668664E-06     1.7492223E+02   
                   1.8671974E-06    -9.5051559E+01     7.3671097E-02     1.7999991E+02     1.2039056E-06     1.5229129E+02     2.0861521E-06    -1.2004929E+02   
                   3.6852535E-02    -3.7606586E+01     1.6677016E-06    -9.4910291E+01     2.2828150E-06     1.7698765E+02     1.2150415E-06    -1.7727732E+02   
                   2.1521968E-05    -8.9486514E+01     7.6466677E-07    -5.3636981E+01     1.7307965E-06     8.2508353E+01     1.2303514E-06    -1.5696277E+02   
                   6.1071722E-01     8.0735382E-02     2.2449417E-06    -8.8136280E+01     3.7124099E-02    -6.1705615E+01     1.2625574E-06     6.2279923E+01   
                   2.0064775E-06     2.2539672E+01     3.1912117E-06     4.1565106E+00     2.9248436E-05     9.0125781E+01     5.5117857E-07    -1.6729900E+02   
                   5.6904496E-07     1.5477275E+02     6.2868343E-07     1.1889574E+01     2.7735973E-02    -1.7717193E+02     8.3408911E-07     9.4792573E+01   
                   6.4651954E-07     3.6237187E+01     2.8430687E-02     1.5911375E+00     9.7827460E-07     8.8098224E+01     1.3086946E-05     9.1400906E+01   
                   3.4007561E-07    -1.0874632E+02     2.0071988E-06     1.0693018E+02     1.7576405E-06    -1.4556198E+02     1.8965667E-06    -9.3257470E+01   
                   2.5438755E-06    -1.0821852E+02     5.9800374E-01     3.6536297E-02     5.2895986E-07     7.3839908E+01     3.3953908E-02     1.1070523E+02   
                   1.6112637E-06    -3.9784568E+01     3.0012895E-05    -9.0280959E+01     2.7793066E-06    -1.7666176E+02     3.0542548E-06     9.0734532E+01   
                   2.2868682E-06    -2.2328094E+01     1.8538928E-06    -9.5404377E+01     6.3213963E-07    -2.5268785E+00     1.7478779E-02     1.7678573E+02   
  6.1764706E+09     5.3980898E-03     1.5676825E+02     4.6891506E-06     9.3002272E+01     2.1690857E-06    -1.7876367E+02     1.0085340E-06     1.6403238E+02   
                   8.0204535E-06     3.1015037E+01     7.6826681E-07    -8.1482970E+01     3.7023949E-06     5.3337540E+01     1.7830450E-06     7.7662174E+01   
                   2.5442280E-02     1.1328223E+02     6.0909510E-07    -4.5755012E+01     9.9998307E-01    -1.0243222E+01     9.7229996E-07    -1.6735447E+02   
                   5.6060926E-06     2.9897722E+01     2.6934829E-06     1.5454439E+02     1.4859286E-05    -1.2913955E+02     6.7038020E-07    -8.5206837E+01   
                   1.0759547E-06     1.6705837E+02     3.2496061E-06    -7.3197942E+01     3.5818519E-02    -3.7146468E+01     4.2177160E-06    -7.5973469E+01   
                   7.9096068E-07     1.6233651E+02     2.3878638E-01    -4.8562695E+00     9.4097715E-07     6.5798973E+01     5.9579799E-06    -2.8526638E+01   
                   4.9590950E-06    -1.1806287E+02     5.0194317E-07    -1.3525202E+02     3.1309438E-06    -1.0811524E+02     1.3782558E-06    -5.6608485E+01   
                   1.6666577E-07    -3.9901091E+01     2.5077980E-02    -9.5696578E+01     1.2828462E-07     2.6464715E+01     9.7107387E-01    -5.0052418E+00   
                   1.0462416E-06    -1.3625339E+02     1.5412129E-05     1.4797801E+02     2.9419080E-06    -2.0071617E+00     1.0626596E-06    -4.2458192E+01   
                   2.3029960E-06    -1.3914282E+02     3.6601309E-06     6.6029924E+01     3.5406436E-06    -1.3336791E+02     3.1843148E-02     6.7199170E+00   
                   3.0555829E-06    -2.8034729E+01     6.7039333E-06     1.3340856E+02     8.8695539E-02     5.9327060E-04     5.5464635E-07     1.6881385E+02   
                   2.1605733E-06     8.8686634E+01     4.7999753E-06     1.7519681E+02     2.0157743E-05     9.2065524E+01     2.2595503E-06    -4.0642208E+01   
                   2.6204647E-06     1.6781334E+02     2.5013280E-06     9.6594329E+01     9.5422961E-07     3.1627767E+01     2.1425901E-06     2.9908627E+00   
                   8.2880433E-01     1.7999974E+02     2.9388467E-06    -4.8930975E+00     1.7352066E-06    -1.1887254E+01     3.5531630E-06    -1.7257622E+02   
                   2.6032454E-05     9.4290987E+01     2.9811292E-06     1.7539843E+02     3.0238944E-06     1.5723981E+02     2.1649552E-06     1.3809959E+02   
                   4.2932944E-06     1.5206303E+02     3.7342536E-06    -6.7249375E+01     3.0398546E-06    -6.1185630E+01     2.6196328E-02     3.2531564E-03   
                   4.9133437E-06    -1.2593752E+02     1.8110674E-06     1.3852731E+02     1.9935300E-06    -1.4262508E+02     2.8077910E-06    -1.3645784E+02   
                   6.8654607E-06     1.5542475E+02     1.0594318E-05     7.6464625E+01     6.1686259E-06     1.9581402E+01     6.1487770E-06    -4.8940791E+01   
                   2.5092879E-06    -1.7932547E+02     7.3960024E-01    -1.7999999E+02     8.6332853E-06    -1.3835645E+01     1.2026811E-07    -9.2264581E+01   
                   4.1128603E-06    -8.6201230E+01     1.7970983E-06    -1.5841882E+02     1.2574194E-06    -3.2092164E+01     1.6611192E-05     8.3832544E+01   
                   1.6786632E-05     3.1898201E+01     1.2137000E-06    -4.7338456E+01     2.8358822E-06    -1.3048942E+02     2.9282447E-06     8.4629525E+01   
                   1.2940423E-03     3.6068489E+01     6.5689849E-07    -3.5019987E+01     1.3564750E-06    -1.0689071E+01     4.1255599E-06    -1.0260793E+02   
                   3.9505328E-06    -1.1878741E+02     3.2641417E-06     2.4272027E+00     1.1666961E-05     6.0629164E+01     3.3686527E-06     8.3675166E+01   
                   3.0720491E-06    -1.2729982E+02     4.3115581E-07    -1.2554488E+02     7.4320405E-01     1.7992437E+02     2.1488746E-06     1.4049224E+02   
                   3.7862362E-06    -7.6761200E+01     5.2779533E-06     8.0488247E+01     1.8624167E-05    -8.4869973E+01     3.6686299E-06    -4.4985270E+01   
                   5.2613883E-07     9.1555477E+00     3.1916870E-06    -1.1187988E+01     5.8416161E-06     1.7351320E+02     3.0904070E-06     1.7572777E+02   
                   2.2713009E-06     1.6312069E+02     5.2274650E-02     5.4605879E-04     1.0726118E-06    -1.1681626E+02     1.5644493E-06     7.7396583E+01   
                   6.9207887E-07    -2.9548828E+01     2.5351363E-07    -3.0347306E+01     1.5570377E-06     1.4307727E+02     4.7796129E-07    -1.1415716E+02   
                   6.8309963E-06    -1.8869657E+01     2.8713680E-06    -3.0360190E+01     5.5515627E-06    -9.2945110E+01     6.9912870E-01     1.4117089E-04   
                   4.5820656E-06     8.8855255E+01     6.4195072E-06    -1.5621133E+02     1.2229045E-06     1.7983376E+01     2.5044566E-06     4.5294773E+01   
                   2.9555573E-06     8.9489667E+01     5.1458491E-07    -1.4835852E+02     1.9653119E-05     1.0296658E+02     1.3492995E-06     9.9890912E+01   
                   3.2439571E-06    -1.6739365E+02     1.8977175E-06    -4.8511761E+01     6.0905803E-03     7.4259589E-03     1.2475816E-06    -2.3922818E+01   
                   2.8042927E-06     1.5379055E+02     9.9759982E-07     1.3148731E+02     4.4675137E-06    -9.1774956E+01     3.2307865E-06    -1.6255397E+02   
                   2.3775930E-05    -9.1826434E+01     1.9354660E-06     1.5268690E+02     7.5019303E-06    -4.4746656E+00     4.3174326E-06    -9.8297061E+01   
                   6.2981694E-01     1.7081205E-04     2.5984936E-06    -8.8858058E+01     2.5337779E-06     1.0564121E+02     1.6978381E-06    -5.6359395E+01   
                   1.8776319E-06    -1.0728972E+02     3.6363866E-06    -5.3601611E+01     6.2056283E-07     7.3597694E+01     8.5881288E-07    -1.6256389E+02   
                   8.9356524E-07    -1.2421468E+02     2.5814489E-06    -4.1056113E+00     1.2074919E-06     1.4661038E+02     4.5673999E-02     1.5077826E-04   
                   7.8212524E-07    -3.2253176E+01     4.2910579E-07    -1.3258287E+02     7.9146372E-07     1.0878321E+02     1.7214302E-06    -4.9700881E+01   
                   8.3872948E-07     1.7833057E+02     1.9806090E-06     1.6157047E+02     3.1362026E-06    -9.1777294E+01     4.8398178E-06    -5.6860361E+00   
                   4.5294506E-07     1.2600522E+02     6.0674334E-01    -1.7999997E+02     2.0416552E-06    -1.2827663E+02     1.2560674E-06    -1.5915882E+02   
                   2.5443856E-02     1.1328713E+02     4.6600892E-07     9.9375444E+01     4.2178398E-06    -1.7652005E+02     5.0781105E-06     1.6079351E+02   
                   1.3006293E-05    -1.2390085E+02     2.3657802E-06     1.2013827E+02     1.9074238E-06    -4.1118900E+01     1.0665536E-06     5.0348333E+01   
                   1.9203638E-02    -1.9344576E+00     1.3951992E-06    -4.8551695E+00     2.5563701E-02     1.4636328E+02     3.0334306E-06     2.8780046E+01   
                   1.6930824E-06    -4.1560022E+01     3.4759670E-06    -6.2865398E+00     4.4939412E-06     1.0999241E+02     2.7443596E-06    -2.0909772E+00   
                   1.4556575E-06    -8.5150620E+01     1.0781590E-06    -1.7414737E+02     6.1311212E-01     7.4105500E-02     1.7205264E-06    -5.2308017E+01   
                   1.9355700E-06     1.7742361E+02     2.5080987E-02    -9.5690940E+01     3.8559725E-06    -2.4783260E+01     1.0449694E-05     8.9485903E+01   
                   2.8499860E-06    -3.9463892E+01     2.1443186E-06     1.0813852E+02     1.5129657E-06     1.7660377E+01     1.2397039E-06    -3.3588670E+01   
                   1.9838314E-06     1.6101773E+02     1.1491088E-02     3.2348808E+00     3.1328047E-06     8.1222860E+00     2.5866195E-02     1.6698430E+02   
                   9.8667488E-07     1.1703974E+02     1.8406849E-05    -8.9282773E+01     3.1214030E-06    -1.4659582E+02     2.8532253E-07     3.5488870E+01   
                   3.0589949E-06     1.6110855E+02     1.7757047E-06    -4.5946366E+01     7.0445432E-06    -1.2835446E+02     6.0032665E-01     1.7817119E-03   
                   9.9998394E-01    -1.0243019E+01     1.6571701E-06    -2.9463252E+01     1.1292916E-06     2.9543409E+01     8.7209162E-07    -1.9754015E+01   
                   1.2744460E-05     4.9717266E+01     7.4830969E-07    -6.5902773E+01     5.7237255E-07    -7.7983582E+01     9.4164401E-07     6.4876771E+01   
                   2.5568608E-02     1.4636584E+02     9.7437044E-07    -2.9534868E+01     5.3969303E-03     2.7107746E+00     6.0187013E-07     3.1971180E+01   
                   6.1455258E-07     1.3204661E+02     2.6182867E-06     9.5595382E+01     1.1791747E-05    -1.3293100E+02     1.3714180E-06    -8.7425577E+01   
                   1.7689962E-06    -1.1694926E+02     1.9423916E-06    -6.4116194E+01     3.5968697E-02    -6.2900776E+01     9.9038405E-07    -1.4487380E+02   
                   5.8828479E-07    -9.9730165E+01     9.7107090E-01    -5.0052710E+00     5.8729597E-07     5.3960867E+01     6.7131068E-06    -7.3966202E+01   
                   2.6232357E-06     8.5207387E+01     7.0088057E-07     4.5943362E+00     2.4629055E-06     1.1364713E+02     8.0459549E-07    -2.5528388E+01   
                   1.7949634E-06    -1.2439824E+02     2.5860140E-02     1.6698369E+02     8.6244784E-07    -8.4191596E+01     2.3878913E-01     1.7484629E+02   
                   8.4639915E-07     3.4659386E+01     1.3104019E-05     1.1056594E+02     1.3702002E-06     1.4570435E+02     9.6155166E-07     4.9592991E+01   
                   6.4647715E-07     1.3565799E+02     1.0917177E-06     1.6367679E+02     2.6981392E-06     2.9916041E+01     3.1230918E-02     9.2048942E+01   
                   1.0694911E-06    -1.4167429E+02     3.1640533E-06    -9.9151572E+01     8.2879767E-01     1.7999989E+02     6.9616090E-07     5.8919783E+01   
                   1.9978199E-06     1.0516975E+02     4.0580632E-06     8.3748316E+00     2.4063283E-05    -8.9735883E+01     9.5175622E-07    -1.6809528E+02   
                   2.0054292E-06    -1.8167258E+01     1.8991001E-06    -1.0277107E+02     1.6101445E-06     1.0315178E+02     1.1713080E-06    -2.3353721E+01   
                   1.1157007E-01    -1.7999899E+02     1.3771328E-06     1.7650980E+02     8.1306696E-07    -1.3393417E+02     5.7050741E-06     5.9456811E+00   
                   3.0080994E-05    -9.0536756E+01     3.0203369E-06     9.0887246E+00     3.4245008E-06     1.4832971E+01     1.8319716E-06    -7.7630112E+01   
                   4.6924712E-07     1.1199764E+02     1.2645865E-05     1.4263334E+02     1.4940757E-06     8.1296816E+00     7.3960401E-01     1.7999994E+02   
                   6.5325961E-07    -1.1599978E+02     2.7578069E-06     4.2458277E+00     2.3109779E-06     1.1106659E+02     7.3194168E-07     1.7255328E+02   
                   1.6015104E-06     1.5216171E+01     2.0046733E-05    -8.9547038E+01     8.2713186E-07     8.7217890E+01     1.1662290E-05     1.1579821E+02   
                   1.2561048E-06     1.5303580E+02     4.2143645E-02    -1.7999919E+02     5.4312506E-07    -8.5491294E+01     3.3184881E-06     9.0421162E+00   
                   9.7853465E-07     9.4206098E+01     1.0304429E-06    -2.7002129E+00     3.7374051E-06     4.8658852E+00     3.0661008E-05    -9.0116944E+01   
                   1.2455713E-05    -1.4946290E+02     1.1332047E-06     3.7917748E+01     4.1999748E-07     9.4309645E+01     2.1763201E-06    -1.0320829E+02   
                   7.4320018E-01     1.7992464E+02     9.3701189E-07    -7.3878793E+01     7.9495364E-07     5.1609252E+00     2.5264125E-06    -1.0808772E+02   
                   7.5452233E-06     8.5492028E+01     1.4036670E-07    -8.0810703E+01     1.4230765E-05    -1.2723836E+02     1.2175161E-06     1.3740478E+02   
                   5.7776799E-07    -5.7313930E+01     5.0085706E-07    -1.7549003E+01     9.0910546E-03     1.7197855E+02     8.1285488E-07    -8.2362921E+01   
                   6.2563187E-07     1.7273620E+02     1.5498706E-06     9.1864378E+01     3.0774316E-05     8.9948157E+01     2.9437878E-06    -1.7359810E+02   
                   2.0924657E-06     7.5089729E+01     9.4522007E-07    -9.7295216E+01     4.9082309E-06     1.6389564E+02     6.8500696E-07    -1.7595890E+02   
                   9.0824174E-07     1.6809091E+02     6.9912701E-01     8.5016449E-06     2.8843274E-06    -1.1235672E+02     3.1455962E-06     8.8840814E+00   
                   9.2484144E-07     6.2544556E+00     2.1364607E-06     8.9927419E+01     1.6019344E-06    -1.2762079E+02     2.5106346E-07     7.9641369E+01   
                   5.1209279E-06    -8.0549389E+00     4.0007435E-06     7.4824565E-01     8.0883088E-07    -1.0093484E+02     7.6365766E-02     1.7999951E+02   
                   1.6667789E-06     9.1065127E+01     5.9431554E-06     1.7608356E+02     9.0601073E-07    -1.5256197E+02     1.6471726E-06     1.0590993E+02   
                   7.6595205E-07    -1.7549828E+02     1.2838704E-06    -8.6632067E+01     2.6139776E-05     9.4607902E+01     1.2134432E-06    -5.6713520E+01   
                   5.1582185E-07    -6.7087011E+01     2.1968526E-06     9.4879367E+01     6.2982052E-01     4.5970339E-05     1.2636672E-06     4.2856858E+01   
                   1.5485143E-06     1.2056663E+02     1.0782668E-06     1.1185373E+02     8.9375366E-07    -7.4799617E+00     2.0923748E-06     1.7804823E+02   
                   3.2232051E-05    -9.1736093E+01     7.8976636E-07     1.4393793E+02     9.6160762E-07     6.9157454E+01     7.6708485E-07     1.3090081E+02   