! S-parameter export from POSTFEKO
! Filename: circular_2wg_10modes_discont_coarse
! Creation date: 2020-03-06 09:40:59
! 
# Hz S MA R    5.0000000E+01 
  6.0000000E+09     8.8707816E-03     1.6014243E+02     3.4101367E-06    -8.8465774E+01     5.0178569E-06    -2.6908994E+01     5.6144274E-06    -4.6179958E+01   
                   1.7467774E-05     3.3250051E+01     1.0639504E-06     3.9436960E+01     2.7675837E-06     9.4016171E+01     3.2403070E-06     1.4132836E+02   
                   2.5934316E-02     1.1454239E+02     6.3977749E-06     6.3016450E+01     9.9996018E-01    -9.5975580E+00     1.0525896E-06     6.6320859E+01   
                   4.1808285E-06     1.5458435E+02     3.9927464E-06     1.0653498E+02     1.5033948E-05    -1.4625701E+02     1.4575345E-06    -4.3921528E+01   
                   1.2653340E-06    -4.2698239E+01     3.4389234E-06     7.4630796E+01     3.7058497E-02    -3.7708992E+01     4.1057091E-06     6.4404242E+01   
                   4.3433986E-06    -1.2541890E+02     4.6011672E-01    -2.3236194E+00     1.0565388E-05    -1.1991530E+02     7.1509787E-06    -2.2530015E+01   
                   3.2759208E-06    -4.5793303E+01     2.3823587E-06     7.8259469E+01     3.2058498E-06     8.8056154E+01     2.4015846E-06    -1.2285532E+02   
                   1.5261543E-06     1.6433093E+02     2.2686493E-02    -8.7996765E+01     8.7603169E-07     1.1729374E+02     8.8785971E-01    -3.2828652E+00   
                   7.7571900E-06     7.3244914E+01     1.5663242E-05     1.4964630E+02     2.2910537E-06    -3.1909298E+01     4.3042838E-06     5.6899262E+01   
                   1.5325626E-06    -4.8611437E+01     3.9617658E-06     7.2704679E+01     3.9866992E-06     9.5067156E+01     2.8579629E-02     1.7592509E+00   
                   3.4026349E-06    -1.9515728E+01     1.1488260E-05    -1.0057196E+02     7.9904473E-02    -1.2338271E-03     6.4874271E-06     1.7661206E+02   
                   5.9446840E-06    -8.5766613E+01     2.1457447E-05     1.7999257E+02     3.1515551E-05     9.2801544E+01     9.1474837E-06     1.7472705E+02   
                   1.6822635E-06     1.4245072E+01     2.1911387E-06     9.0585556E+01     3.7371379E-06    -1.0650272E+02     1.4094194E-05     3.3279000E+01   
                   8.2065353E-01    -1.7999996E+02     1.4932917E-06     1.6277302E+01     3.3679924E-06     1.2818931E+02     1.7343854E-05    -1.7800951E+02   
                   3.9350764E-05     9.2612454E+01     1.2368177E-05    -2.1376910E-02     1.9352187E-06    -8.0801891E+00     2.9890259E-06     9.6246513E+01   
                   4.7545219E-06    -6.7665474E+01     6.8002323E-06    -4.6714792E+01     5.6335343E-06     1.7661632E+02     2.4606972E-02    -1.4631067E-03   
                   2.2838192E-06     5.5157337E+01     8.5875652E-06    -1.7696715E+02     2.2399766E-06    -1.3273309E+01     1.6469630E-06     1.7479648E+02   
                   1.4941637E-05     1.7975241E+02     1.1246739E-05     9.1333934E+01     6.2682155E-06    -3.8318615E+01     5.7564133E-06    -7.7951625E+01   
                   1.6665815E-06     5.8578077E+01     7.3461194E-01    -1.7999996E+02     3.9020055E-07     1.4842125E+02     1.1646960E-05     1.7746756E+02   
                   1.8419577E-06     1.5180064E+02     2.8083696E-06    -2.8419349E+00     6.4932295E-06     1.7834428E+02     1.7194517E-05     8.8630075E+01   
                   1.3085775E-05     3.2126028E+01     1.9934034E-06    -4.1824199E+01     6.2990532E-06    -9.2284103E+01     2.3274687E-06     9.5041422E+01   
                   2.2979916E-03     1.8364282E+01     1.0689524E-05    -9.3310219E+01     4.2822303E-06     1.7733549E+02     6.6413414E-07    -1.1441915E+02   
                   2.3982739E-06     9.3650314E+01     1.0825342E-05     4.3690894E+00     1.1931088E-05     5.1280251E+01     5.5022807E-06     1.5265670E+02   
                   3.0227531E-06     7.8506977E+01     1.4651783E-06     7.8837044E+01     7.3787156E-01     1.7992604E+02     8.0196619E-06    -9.3803346E+01   
                   5.1497480E-06    -1.1423650E+01     6.1028224E-07     1.1980847E+02     2.3324322E-05    -8.6517415E+01     9.7586479E-06     3.1532826E+00   
                   2.7367491E-06     6.8287631E+00     3.3901486E-06     1.0875127E+02     2.2991474E-05    -1.7874872E+02     7.3026025E-06    -1.7480418E+02   
                   1.1874774E-05    -9.1448915E+01     5.0753569E-02    -8.9191155E-04     1.0137551E-05    -8.9280870E+01     2.0094083E-05     1.7953202E+02   
                   1.2797625E-06     1.6489808E+02     1.3718675E-06     9.2280759E+01     1.8320624E-06    -8.3283977E+01     2.4706104E-06    -1.5872575E+02   
                   1.8714657E-05    -5.7007778E-01     1.1076171E-05     1.1761016E+00     2.3120555E-06    -9.9926791E+01     6.9487655E-01     3.0085060E-05   
                   8.8422040E-07    -1.0119055E+02     3.9137953E-06     1.1080697E+01     1.5333204E-06    -1.3448463E+01     4.5147950E-07    -1.5839595E+01   
                   2.0623201E-06     3.6732526E+01     1.8535910E-06     4.2098814E+01     2.8128500E-05     9.0328838E+01     9.1714483E-07    -5.3707264E+01   
                   4.7661724E-06     1.7828991E+02     8.9144138E-06    -8.2386236E+01     6.1722758E-03     8.8504341E-03     1.0312162E-05    -8.8324285E+01   
                   2.0863076E-06    -8.6192522E+01     7.5446990E-06    -1.4173005E+01     1.5735558E-06     4.4567047E+01     1.0454810E-06    -1.7300487E+01   
                   3.2543245E-05    -9.0544944E+01     4.2236079E-06    -9.3297473E+01     5.7242688E-06    -1.7700285E+02     7.3891844E-06    -9.4537735E+01   
                   6.2635058E-01     1.4009104E-04     6.4329780E-06     8.4747407E+01     6.3098332E-07     1.1847310E+02     6.7770700E-06     4.1304342E+00   
                   3.9955748E-06     1.3161132E+02     2.4864171E-06    -9.7252076E+01     8.1406610E-06    -1.7383299E+02     1.0565405E-06     1.7483967E+02   
                   5.5070619E-07    -1.3853854E+02     2.0236112E-05     1.7824768E+02     1.0392035E-05    -9.2358043E+01     4.4733036E-02     5.8594228E-05   
                   4.2777858E-06    -1.7602651E+02     2.3989140E-06     5.5710699E+01     3.9447260E-06     1.2872700E+02     1.7073487E-06     4.5814277E+01   
                   1.0803421E-05     1.6188536E+00     4.9781934E-06    -1.7566553E+02     2.4341411E-06    -8.5705279E+01     5.5672868E-06    -1.7375653E+02   
                   2.3406868E-06    -9.7519919E+01     6.0372887E-01    -1.7999998E+02     4.2945825E-06    -1.7523695E+00     1.9191056E-06    -1.0035779E+02   
                   2.5935123E-02     1.1454185E+02     2.8295516E-06     1.1280001E+02     7.0916900E-07     1.7228036E+02     1.5166962E-05    -1.7981124E+02   
                   2.2713421E-06     3.3225574E+01     1.9132779E-06     1.5615508E+02     2.5893169E-06    -1.7762919E+02     3.3695484E-06     1.7410100E+02   
                   1.8774569E-02    -2.0711137E+00     3.8462705E-06     1.0823477E+02     2.6150840E-02     1.4568157E+02     3.2234967E-06    -1.6954592E+02   
                   2.5053393E-07     4.7512088E+01     8.8725485E-06    -8.0958674E+00     7.0350810E-06     6.8589934E+01     5.6753596E-06    -1.6711650E+02   
                   4.7314871E-06    -1.0783932E+02     1.7045535E-06     2.8310939E+01     6.1003391E-01     8.0674749E-02     7.8248315E-06     7.2558358E+01   
                   4.6729846E-06     4.6524107E+01     2.2684904E-02    -8.7996181E+01     2.0267771E-06     8.3329053E+01     9.1353183E-06     9.0568161E+01   
                   1.0841295E-05     3.1700623E+00     4.1119883E-06     9.0935518E+01     6.7136332E-06     6.0124596E+00     8.5959695E-07     1.2475865E+02   
                   1.5570413E-06     8.5000364E+01     1.1530130E-02     3.4097520E+00     5.4899499E-06     3.2467436E+01     2.9277839E-02     1.5119375E+02   
                   2.2765251E-06    -1.0141333E+02     2.4306207E-05    -8.8693877E+01     7.3765889E-06     1.7180875E+02     1.9844560E-06     6.4030414E+01   
                   1.1995821E-05    -4.9867174E+00     3.7274802E-06    -8.7113492E+01     3.8680205E-06     9.0855071E+01     5.9724592E-01     3.6515652E-02   
                   9.9996031E-01    -9.5974563E+00     1.9620012E-06    -1.2716807E+02     4.1225292E-06    -6.2719453E+01     5.1280877E-06    -3.6396829E+01   
                   1.3811934E-05     5.0557315E+01     2.1067660E-06    -9.5138104E+01     1.2916224E-06    -3.8623342E+00     3.5563111E-06     1.0952644E+02   
                   2.6150245E-02     1.4567728E+02     5.7185941E-06     4.0111687E+01     8.8683590E-03     6.4758611E-01     3.7010374E-06    -8.0206237E+01   
                   2.7561966E-06     9.5428464E+01     6.1847061E-06     1.2696380E+02     1.5197824E-05    -1.3217686E+02     2.2889069E-06    -8.5405864E+01   
                   1.0338124E-06     7.9432634E+01     3.5919954E-06    -1.6820217E+02     3.7332126E-02    -6.1603203E+01     3.6748724E-06     4.5337755E+01   
                   4.1318870E-06     1.9477330E+01     8.8785831E-01    -3.2830145E+00     1.4657578E-05     3.1287081E+01     6.2297910E-06    -9.6992847E+01   
                   5.6709269E-06     1.3911652E+02     4.2441638E-06    -1.3611931E+02     2.2616269E-06    -2.7935803E+01     3.2082115E-06     5.8755904E+01   
                   1.6558320E-06     1.0093807E+02     2.9277812E-02     1.5119170E+02     3.9561657E-06    -9.1837076E+01     4.6011518E-01     1.7575794E+02   
                   1.0161094E-05    -1.4930407E+02     1.2841507E-05     9.2108414E+01     2.6491724E-06     1.0771523E+02     6.4951917E-06    -1.4714188E+02   
                   2.9553949E-06     1.1945535E+02     4.5997310E-06    -1.4103763E+02     4.5012995E-06    -1.4649909E+02     3.4037747E-02     1.1061025E+02   
                   2.8896199E-06    -1.7479574E+02     6.8904220E-06     8.1483259E+01     8.2065703E-01     1.7999989E+02     4.2506474E-07    -8.0749785E+01   
                   2.6523759E-06     1.0545161E+02     1.8057549E-05    -5.0904637E-01     3.1782833E-05    -8.9418436E+01     1.1999281E-05    -2.4806544E+00   
                   1.8195361E-06    -1.6036426E+02     3.6134905E-06    -9.4156545E+01     3.5578700E-06     7.0674162E+01     9.9645207E-06    -1.5089850E+02   
                   1.0222884E-01    -1.7999983E+02     3.7276500E-06    -1.7709428E+02     3.4872722E-06    -6.2334633E+01     2.3197720E-05     6.1226407E-01   
                   4.2051586E-05    -9.0317481E+01     1.4767179E-05     1.7985370E+02     8.0985355E-07     1.5437957E+02     3.8947812E-06    -9.2131496E+01   
                   6.9184473E-06     1.2547211E+02     1.5823082E-05     1.4789530E+02     9.4533528E-07     9.9255435E-01     7.3461475E-01    -1.7999999E+02   
                   1.6988195E-06     7.6020335E+01     1.2312110E-05     2.2563860E+00     1.9769315E-06    -8.8387095E+01     4.8090447E-06    -1.7985833E+02   
                   6.5345054E-06    -5.1768623E+00     2.6018219E-05    -8.9966028E+01     6.9106521E-06     1.2736699E+02     1.0934058E-05     1.0506976E+02   
                   3.0702644E-06     1.7653338E+02     4.0490661E-02    -1.7999960E+02     3.2006691E-06     8.7892924E+01     1.5338453E-05     1.0640727E+00   
                   3.0602406E-06    -8.2033630E+01     2.3502485E-06     1.7586131E+02     1.1657307E-05     1.0118966E+00     3.7469185E-05    -9.0276324E+01   
                   1.4650020E-05    -1.5102709E+02     1.5395336E-06    -2.8892739E+01     9.0209985E-07     1.0277801E+02     2.2136601E-06     8.9117357E+01   
                   7.3787337E-01     1.7992601E+02     1.8320016E-06    -1.0839056E+02     5.4214718E-06     1.7207854E+02     2.2092257E-06    -9.5430311E+01   
                   7.5861468E-06     8.4438585E+01     7.8071018E-06    -1.7891857E+02     1.4532946E-05    -1.2863595E+02     2.0178148E-06     1.1640113E+02   
                   3.2999342E-06    -8.8103636E+01     2.9746768E-06     8.6691539E+01     1.0803477E-02     1.7331662E+02     6.5180557E-07     9.3012107E+01   
                   2.4358535E-06     1.7729925E+02     2.2793758E-06     7.5107710E+01     3.4903076E-05     9.1092011E+01     4.2510335E-06     1.7583431E+02   
                   1.7871045E-06     8.3955468E-01     4.5084795E-06     7.6899254E+01     1.8954801E-05     1.7827976E+02     1.2154675E-05     1.7941298E+02   
                   9.3589297E-06    -9.3486426E+01     6.9488032E-01    -9.6298697E-06     7.9628419E-06    -9.6171354E+01     4.4876966E-06    -1.7592137E+02   
                   4.1377432E-06    -1.7623045E+02     1.4987320E-06     7.4701862E+01     1.5666351E-06    -8.2733060E+01     6.5714988E-06    -1.4476455E+02   
                   2.2719257E-05    -1.8412881E+00     1.4111125E-05     9.1786594E-01     2.1417374E-06     1.4738826E+02     7.5465640E-02    -1.7999959E+02   
                   5.5430067E-07    -1.3604392E+02     1.3661680E-05     9.6688222E-01     1.6941834E-06    -9.6666925E+00     2.3893856E-06    -1.2155072E+02   
                   1.2588350E-06     2.2920959E+01     1.9650396E-06    -2.4423192E+01     3.4599411E-05     9.0372608E+01     2.9448563E-06     8.6270221E+01   
                   4.6629246E-06     6.1328618E+00     7.3861185E-07    -1.5647301E+02     6.2635497E-01    -1.9761937E-05     2.5115230E-06    -8.2167558E+01   
                   2.0895461E-06    -8.3009443E+01     9.6143425E-06    -4.1964883E+00     2.1597557E-06     8.5015721E+01     2.8025586E-06     1.3192854E+02   
                   4.3448444E-05    -9.1790610E+01     4.1422973E-06    -9.3918145E+01     3.5260355E-06    -1.7439464E+02     9.9323934E-07    -2.1051186E+01   
                   2.0036923E-02     1.7999742E+02     4.1102852E-06     8.8688611E+01     8.9510825E-07    -7.5633230E+01     1.1853411E-05     7.7556171E-02   
                   3.7052995E-06     8.7295660E+01     2.1659612E-06     7.4711458E+01     1.1196987E-05     2.3043974E+00     2.3484439E-06     2.9113681E+01   
                   1.5706834E-06     7.8477131E+01     3.5009430E-06    -1.0202794E+00     4.4625492E-06     8.4646459E+01     6.0373594E-01    -1.7999998E+02   
                   1.4550989E-06    -9.9532512E+00     3.4270176E-06    -8.6076253E+01     3.1810658E-06    -1.6325568E+02     5.6168556E-06    -1.4045132E+02   
                   1.3521006E-05    -1.7715333E+02     1.6121332E-06    -1.6523885E+02     3.9069688E-06     8.5604115E+01     1.2868937E-05    -1.2752765E+00   
                   4.2336407E-06     8.2409393E+01     7.4162472E-02    -1.7999950E+02     2.1348068E-06     1.6499782E+01     4.9779597E-07     2.3809479E+01   
                   3.7055124E-02    -3.7705036E+01     2.8398515E-06     1.2106991E+02     1.8072950E-06    -1.3368505E+01     6.0095532E-06    -1.7664716E+02   
                   2.5172615E-05    -8.7466089E+01     5.0159369E-07     5.2627447E+00     8.8958254E-07    -8.4087466E+01     4.6806449E-06    -1.1489716E-01   
                   6.1003834E-01     8.0641130E-02     4.3242521E-06     8.7334699E+01     3.7328110E-02    -6.1606094E+01     3.2213190E-06    -1.6258744E+02   
                   7.0877500E-07     1.1943524E+02     1.1198328E-05     1.0302115E+00     3.4378215E-05     8.9619358E+01     1.3855751E-06    -1.7901094E+01   
                   3.4159922E-07    -8.0115052E+01     2.6660983E-06     3.7583429E+00     2.7923534E-02    -1.7715816E+02     2.3627428E-06    -8.2061313E+01   
                   3.7029444E-06     3.1172755E+01     2.8577261E-02     1.7559188E+00     2.5918386E-06     9.2850309E+01     1.6055424E-05     8.9684104E+01   
                   8.5803029E-06     4.9069781E+00     2.5197031E-07    -1.3358198E+02     8.5518325E-06     2.3317615E+00     1.1548662E-06    -1.0385603E+02   
                   6.2136884E-06     8.9949624E+01     5.9724824E-01     3.6428917E-02     3.8902469E-06     4.3152445E+01     3.4036354E-02     1.1061396E+02   
                   3.9778090E-06    -1.0412769E+02     3.5557172E-05    -8.9926339E+01     4.2474861E-06     1.7517348E+02     1.8022157E-06    -9.1812411E+01   
                   1.1585721E-05    -7.2364919E-01     1.6280250E-07     1.3064196E+02     2.1930524E-06    -8.8532687E+01     1.7947122E-02     1.7684458E+02   
  6.1764706E+09     5.3900254E-03     1.5669370E+02     7.0734405E-06    -1.2060484E+02     3.4363549E-06    -7.6034278E+01     4.6988374E-06    -5.8998395E+01   
                   1.5346157E-05     2.9959256E+01     3.0669324E-06    -9.2014528E+00     1.1656379E-06     5.2842413E+01     5.8003397E-06     1.3840034E+02   
                   2.5263258E-02     1.1315579E+02     5.6471270E-06     3.3815172E+01     9.9998541E-01    -1.0241149E+01     9.7000553E-07     6.5220070E+01   
                   2.7437103E-06     1.5516626E+02     7.6786794E-06     1.1969449E+02     1.6152214E-05    -1.5203605E+02     1.1833284E-06     5.9828539E+01   
                   3.8592193E-06    -1.6485999E+01     4.4905698E-06     7.0169236E+01     3.6017109E-02    -3.7256096E+01     3.5175317E-06     3.7039157E+01   
                   5.2959607E-06    -5.8863457E+01     2.3881660E-01    -4.9362626E+00     1.1369229E-05    -1.2086594E+02     8.2398904E-06    -2.6064847E+01   
                   2.9536267E-06    -5.3237578E+01     3.2358559E-06     7.3028594E+01     1.2600753E-06     9.1290057E+01     1.1125450E-06    -1.1931399E+02   
                   2.4377202E-06     1.6980500E+02     2.4895661E-02    -9.5641813E+01     1.2623761E-06    -4.9127071E+01     9.7106293E-01    -4.9940900E+00   
                   8.4553779E-06     6.7674827E+01     1.9743648E-05     1.4036513E+02     3.3550046E-06     4.4740893E+01     4.7145579E-06     7.5129359E+01   
                   3.2743178E-06    -5.7079717E+01     2.3516143E-06     6.9799887E+01     3.9170007E-06     1.0815208E+02     3.2029232E-02     6.8651072E+00   
                   5.1351665E-06    -3.7983797E+01     1.1350829E-05    -1.1016530E+02     8.8363363E-02    -4.6302504E-04     7.0264276E-06    -1.7408167E+02   
                   5.7154628E-06    -1.0039123E+02     2.2349846E-05     1.7872444E+02     3.2688679E-05     8.6723930E+01     9.8524904E-06    -1.7906313E+02   
                   3.1576400E-06     8.9438629E+00     3.6572638E-06     8.8145823E+01     5.2485351E-06    -6.9338579E+01     1.1406845E-05     2.4128886E+01   
                   8.2847643E-01     1.7999989E+02     5.9117839E-07     7.0307313E+01     3.5531560E-06     8.7844428E+01     1.8465805E-05    -1.7936206E+02   
                   4.1907775E-05     8.9038832E+01     1.2680835E-05    -9.5898939E-01     3.3860508E-06    -1.2365073E+01     4.0197636E-06     4.6085889E+01   
                   5.0899873E-06    -3.3298524E+01     1.0039495E-05    -4.2848471E+01     7.5091195E-06    -1.7734329E+02     2.5975759E-02     2.7911308E-05   
                   2.4493781E-06     5.6050304E+01     8.9767105E-06     1.7922701E+02     1.0063786E-06    -6.6026256E+01     2.1057243E-06    -1.5823899E+02   
                   1.5375610E-05     1.7912026E+02     1.1272127E-05     8.9044005E+01     4.2735411E-06    -3.3452359E+01     6.4720461E-06    -5.7189610E+01   
                   3.3681961E-06     3.3278883E+00     7.3918016E-01     1.7999994E+02     4.7228229E-06     1.1419079E+02     1.4000797E-05    -1.7714979E+02   
                   4.6584117E-06     9.3893213E+01     2.5068418E-06     4.9830079E+00     7.5499945E-06     1.7871535E+02     1.8779264E-05     8.5206113E+01   
                   1.2022331E-05     4.3231085E+01     4.9689070E-06    -5.1156804E+01     5.5992551E-06    -9.0312367E+01     3.5789159E-06     9.7359802E+01   
                   1.1833292E-03     3.9067406E+01     1.1904128E-05    -8.9544226E+01     4.6855149E-06     1.7553456E+02     7.7312716E-07    -1.6956736E+02   
                   4.4376824E-06     8.8092626E+01     7.3695607E-06    -1.4665316E+00     1.3657957E-05     4.6166465E+01     3.2572769E-06     1.6762918E+02   
                   4.1856062E-06     1.1436174E+02     2.0359143E-06     4.2934384E+01     7.4277249E-01     1.7992459E+02     7.8525771E-06    -9.0190126E+01   
                   5.4713684E-06    -1.2179965E+01     4.1032873E-06     7.4182778E+01     2.4006141E-05    -8.8275076E+01     7.1644476E-06     1.1811876E+00   
                   1.8495470E-06     2.7927515E+01     3.8431233E-06     1.0438478E+02     2.3710271E-05    -1.7861306E+02     7.2892703E-06    -1.7844363E+02   
                   1.0818451E-05    -9.3911768E+01     5.1885162E-02     5.6124817E-04     9.5126475E-06    -9.0137732E+01     2.0273789E-05    -1.7871016E+02   
                   1.0435817E-06    -1.6256255E+02     2.0109683E-06     5.5584886E+01     2.7310116E-06    -1.1261929E+02     3.0858522E-06    -1.6643161E+02   
                   1.9217912E-05     4.7013075E+00     1.2032794E-05     8.7152096E-01     2.4309897E-06    -1.3544771E+02     6.9868513E-01    -1.1684081E-05   
                   3.5761478E-06    -3.8756498E+01     5.1579220E-06     1.1812537E+00     1.8647866E-06    -1.6506526E+00     2.3365308E-06    -2.3576906E+01   
                   1.8860420E-06    -2.8912382E+01     1.1640451E-06     1.4785290E+02     3.0865385E-05     9.1874750E+01     1.3165398E-06    -9.2072893E+01   
                   3.9219729E-06    -1.7639771E+02     1.0337497E-05    -8.7839584E+01     5.8159296E-03    -5.0186410E-03     9.6353266E-06    -8.6952540E+01   
                   2.9852958E-06    -9.5592845E+01     7.9349137E-06    -3.1635075E+00     2.1365560E-06    -3.2682221E+01     1.6632140E-06     2.1816536E+01   
                   3.4852441E-05    -9.0566458E+01     2.2767515E-06    -1.0783267E+02     4.3434102E-06     1.5993237E+02     6.6136551E-06    -9.2176182E+01   
                   6.2915383E-01     7.2962236E-05     3.6530785E-06     8.4957140E+01     9.6279088E-07     1.6386819E+02     7.2163919E-06    -8.4057864E+00   
                   3.5495036E-06     1.2080184E+02     2.1732016E-06     1.7327477E+02     9.2962884E-06     1.7862401E+02     3.5068355E-07     1.5664898E+02   
                   8.8247139E-07    -1.7547232E+02     1.9717439E-05     1.7992879E+02     1.0335444E-05    -8.8899064E+01     4.5244205E-02    -9.5270271E-04   
                   4.5205959E-06     1.6718440E+02     1.3777538E-06     5.4324642E+01     4.6583584E-06     1.2075308E+02     1.9548690E-06    -1.0495740E+01   
                   1.0905475E-05    -4.4896179E+00     5.8583475E-06     1.6841676E+02     1.9032880E-06    -1.0843708E+02     5.2645281E-06     1.7899088E+02   
                   1.7666889E-06    -1.2315762E+02     6.0614096E-01    -1.7999996E+02     5.4831364E-06     3.7105399E+00     3.6375832E-07    -1.9438045E+01   
                   2.5261238E-02     1.1315856E+02     2.2348977E-06     1.7049853E+02     1.0620973E-06    -3.1268667E+01     1.4275690E-05    -1.7704560E+02   
                   4.9678982E-07     1.6959940E+02     2.3257901E-06     1.6157152E+02     1.0977264E-06    -1.0180398E+02     5.1684613E-06    -1.7845463E+02   
                   1.9121459E-02    -1.9237207E+00     1.2684629E-06     1.1436151E+02     2.5389762E-02     1.4649157E+02     2.6118507E-06     1.6193666E+02   
                   1.8789543E-06     6.6880618E+01     6.8954281E-06     1.9135410E+00     9.4233912E-06     9.4616852E+01     5.3497580E-06    -1.6222499E+02   
                   8.6465707E-07    -5.8274131E+01     2.3731654E-06     5.5469857E+00     6.1243188E-01     7.4443966E-02     6.2002518E-06     5.5260522E+01   
                   6.0665875E-06     5.5054551E+01     2.4894122E-02    -9.5646571E+01     2.8412129E-06     7.8809519E+01     9.1163218E-06     9.4471693E+01   
                   8.6516887E-06     4.7323961E+00     3.8913810E-06     7.7360365E+01     6.5539006E-06     5.4642978E+00     1.5170976E-06     9.4288359E+01   
                   1.6040763E-06     1.0136369E+02     1.1220121E-02     3.2693069E+00     4.6106206E-06     3.7941541E+01     2.5690688E-02     1.6694567E+02   
                   4.1400073E-06    -8.1732890E+01     2.4859425E-05    -9.0373656E+01     7.3208097E-06    -1.7522517E+02     2.8409670E-06     4.5177987E+01   
                   9.4875078E-06    -2.3495919E+00     2.5198757E-06    -1.0308398E+02     5.0587475E-06     8.2570588E+01     5.9957138E-01     1.5765322E-03   
                   9.9998488E-01    -1.0241081E+01     1.2821715E-06    -1.6582834E+02     3.5896841E-06    -6.3654038E+01     5.2978560E-06    -5.0557893E+01   
                   1.5659579E-05     4.9511260E+01     1.2574420E-06    -1.2239993E+02     1.4892588E-06     2.4526582E+00     4.6271815E-06     1.1801699E+02   
                   2.5390792E-02     1.4649468E+02     5.1403426E-06     4.2425583E+01     5.3897513E-03     2.8378768E+00     2.8892497E-06    -8.6218970E+01   
                   2.9458644E-06     9.8641988E+01     6.1742207E-06     1.3024943E+02     1.7040890E-05    -1.3002481E+02     7.6485724E-07    -7.0096289E+01   
                   1.5874547E-06     8.1329196E+01     3.2283740E-06    -1.6651856E+02     3.6168731E-02    -6.2792601E+01     4.3241330E-06     5.2717914E+01   
                   1.3187568E-06     6.2482838E+01     9.7106397E-01    -4.9940759E+00     1.2505204E-05     2.6350897E+01     7.2518402E-06    -7.8445854E+01   
                   4.3527739E-06     1.4796565E+02     3.0840557E-06    -1.5399839E+02     2.2630577E-06     3.7138982E+00     2.6579511E-06     3.6182631E+01   
                   1.0039928E-06     1.1324774E+02     2.5689346E-02     1.6694684E+02     3.6643866E-06    -9.5123229E+01     2.3881861E-01     1.7494861E+02   
                   8.0630526E-06    -1.6005654E+02     1.7297113E-05     1.1179713E+02     1.4237773E-06     5.8300726E+01     4.3506719E-06    -1.4503959E+02   
                   3.3348435E-06     1.3423210E+02     3.8387394E-06    -1.5635386E+02     3.8393000E-06    -1.7711924E+02     3.1365711E-02     9.1902448E+01   
                   3.3282026E-06     1.5682097E+02     6.7191195E-06     8.6219090E+01     8.2847965E-01     1.7999999E+02     1.1098316E-06     1.0352303E+00   
                   3.1986754E-06     6.4760410E+01     1.8484430E-05    -1.1193536E+00     3.3245278E-05    -9.0811826E+01     1.2294859E-05     8.3825869E-01   
                   1.5922614E-06    -1.6371014E+02     4.0867713E-06    -9.0753307E+01     4.4568947E-06     9.5682517E+01     8.2498481E-06    -1.7159990E+02   
                   1.1188856E-01    -1.7999936E+02     3.6613784E-06    -1.7256169E+02     4.0836651E-06    -1.0919020E+02     2.2835040E-05     2.5186304E-01   
                   4.2670816E-05    -8.8261612E+01     1.3546184E-05     1.7996398E+02     1.5991400E-06     1.7048080E+02     5.6925441E-06    -9.9359787E+01   
                   5.8437258E-06     1.2679539E+02     1.9852096E-05     1.4000634E+02     1.8023706E-06     1.0351884E+01     7.3918240E-01    -1.7999997E+02   
                   1.6427845E-06     1.1489920E+02     1.2063292E-05     6.5753979E-01     2.8797313E-06    -9.3586333E+01     5.5932163E-06    -1.7868566E+02   
                   7.0738503E-06    -4.7935141E-01     2.7022913E-05    -8.9684265E+01     5.8509306E-06     1.3224865E+02     1.6357758E-05     1.1616779E+02   
                   3.5479367E-06     1.7584924E+02     4.2386746E-02    -1.7999949E+02     3.5168155E-06     7.4016375E+01     1.4855196E-05    -2.4217120E-01   
                   3.7564453E-06    -8.6613290E+01     1.4453471E-06    -1.7120650E+02     1.2057917E-05     9.1067854E-01     3.8240776E-05    -9.1530803E+01   
                   1.3868297E-05    -1.4838713E+02     1.3316051E-06     2.1781340E+01     1.2539427E-06     8.3578800E+01     1.4921103E-06     9.5554507E+01   
                   7.4277349E-01     1.7992455E+02     2.6573295E-06    -9.9087957E+01     5.6490170E-06     1.6706987E+02     3.0644147E-06    -1.0004417E+02   
                   7.2962569E-06     8.1229731E+01     8.0515129E-06    -1.7758114E+02     1.4708408E-05    -1.2463232E+02     2.4767147E-06     1.0216320E+02   
                   2.5362945E-06    -7.9668787E+01     4.1167089E-06     8.0638864E+01     9.3065366E-03     1.7208742E+02     6.8159150E-07     1.1706642E+02   
                   2.8019053E-06     1.6335578E+02     2.8066279E-06     8.1170790E+01     3.6113325E-05     8.9209088E+01     3.9749328E-06     1.6514172E+02   
                   1.1541109E-06    -4.1364621E+01     4.0226320E-06     6.8478018E+01     2.0384519E-05    -1.7891267E+02     1.1665388E-05     1.7720463E+02   
                   9.3632850E-06    -9.5926819E+01     6.9868908E-01    -8.3946840E-06     8.1662541E-06    -9.1535441E+01     4.7380030E-06     1.7389178E+02   
                   3.0157789E-06    -1.7882667E+02     1.3220571E-06     1.1198531E+02     2.0161009E-06    -8.4722992E+01     4.8438524E-06    -1.5481679E+02   
                   2.3166979E-05    -3.0029549E-01     1.4308035E-05    -6.5971268E-01     2.5513610E-06     1.1440903E+02     7.6787668E-02     1.7999931E+02   
                   1.3503255E-06    -5.4612393E+01     1.3044739E-05    -6.7608292E-01     2.4109214E-06     7.6897159E+00     1.2309730E-06    -8.7913658E+01   
                   1.6491869E-06    -1.6783950E+00     2.4348094E-06    -4.2864575E+01     3.8456298E-05     9.0978528E+01     3.2463991E-06     8.5508100E+01   
                   5.1687376E-06     1.7606483E+00     9.1011432E-07    -8.2828105E+01     6.2915784E-01     8.0029109E-05     2.1918800E-06    -8.8225940E+01   
                   1.9791858E-06    -8.2116204E+01     9.8448304E-06    -3.2900318E+00     1.1323971E-06     3.3697683E+01     1.9274947E-06     1.3978442E+02   
                   4.5069600E-05    -9.0259145E+01     3.4888694E-06    -9.7968526E+01     3.9569798E-06     1.7749099E+02     6.4020490E-07    -8.4224159E+01   