! S-parameter export from POSTFEKO
! Filename: circular_2wg_10modes
! Creation date: 2020-02-24 14:28:58
! 
# Hz S MA R    5.0000000E+01 
  4.0000000E+09     1.2930462E-01     1.2033764E-03     8.0563014E-06    -2.8900507E+01     9.4904481E-07     1.5645421E+02     9.1537914E-07    -4.0467563E+01   
                   4.3069273E-06     9.6094373E+01     8.8725432E-07     1.7152267E+02     1.5796240E-06    -9.8091420E+01     2.5671405E-06    -1.7399644E+02   
                   3.4053478E-02    -1.7999840E+02     2.8987092E-06    -1.5315496E+02     9.0454817E-01     8.0596536E-05     4.0527138E-06    -1.3677879E+02   
                   3.7603148E-07     5.5196992E+00     3.1646881E-06    -1.3872078E+02     4.7280506E-06    -9.2499829E+01     2.0314981E-06     1.1471935E+02   
                   3.2231739E-06    -3.0393236E+01     2.8032844E-06    -4.3244192E+01     5.8267053E-02    -1.5663697E-03     6.9640262E-06     7.8038391E+01   
                   7.9436177E-07    -6.6948245E+01     9.5212969E-05    -1.7885238E+02     1.3759935E-06     7.5221850E+01     2.9163589E-06    -9.4723225E+01   
                   1.3055466E-06    -5.6054509E+01     3.2332130E-07     1.1339620E+02     9.6359632E-07     2.3309423E+00     4.4889828E-07    -6.4905605E+00   
                   2.9567066E-07     6.4099281E+01     8.4952097E-03     1.7998572E+02     1.9171397E-06    -3.0183051E+01     8.3471193E-01     5.7923143E-05   
                   1.0074015E-06    -5.7878148E+01     5.3178762E-06     9.3500028E+01     1.0667048E-06    -1.6017980E+02     4.2508822E-07    -6.0307843E+01   
                   7.5680801E-07    -6.6265313E+01     1.1454797E-06     1.3197671E+02     1.7489527E-06     1.4848434E+02     4.3024116E-02    -1.8539359E-03   
                   2.6236890E-06    -4.3992272E+01     2.4521861E-06    -1.7370155E+02     4.6997194E-02    -1.8856849E-04     1.4465639E-06     3.5519211E+01   
                   1.1568298E-06    -3.7164295E+01     2.9623597E-07    -1.4219265E+02     5.9147078E-06     8.3376463E+01     4.1675001E-06    -1.6371045E+02   
                   1.3402679E-06     6.1462493E+01     3.0489516E-06     1.3870598E+02     2.2029845E-06     1.4709075E+02     4.3609579E-06     6.3414181E+01   
                   7.6122891E-01    -1.7999996E+02     3.0982301E-07     2.4081066E+01     2.0352342E-06    -1.5116885E+02     2.2418042E-06     1.5981216E+02   
                   8.0676081E-06     9.7495572E+01     3.8839855E-06    -5.4267041E+00     7.4335272E-07    -1.6393075E+02     1.3946341E-06    -1.0874744E+02   
                   1.8313577E-06    -3.7734179E+01     1.2514612E-06    -4.3431048E+01     4.3850716E-07     6.7973909E+01     1.6450900E-02     1.3149664E-04   
                   6.5880454E-07     1.1586527E+02     5.5280372E-07    -1.4506988E+02     4.2680907E-07    -1.3972188E+02     5.0015200E-07    -6.3238033E+01   
                   3.2796911E-07    -1.6935809E+02     1.0041973E-06     1.7588108E+02     1.3098473E-06    -1.7665919E+02     4.7666805E-06     2.1470776E+01   
                   1.1924262E-06    -1.2618604E+02     6.9748772E-01     1.7999997E+02     1.1316204E-06     3.8644611E+01     4.5374099E-07     1.1751609E+02   
                   1.6714837E-06     1.2419776E+01     5.3415083E-07    -1.2623042E+02     2.8145319E-07     1.3536207E+02     2.6787874E-06     9.7811294E+01   
                   5.9865059E-06     1.1649796E+02     2.4979083E-06     1.0388403E+02     8.9973034E-07     8.0452720E+00     7.2878086E-07     1.1958151E+01   
                   9.2736499E-03    -6.5262862E-03     1.8615504E-07     9.1978280E+01     1.7940643E-06    -1.5808469E+02     1.1994689E-06    -3.7667956E+01   
                   2.1183033E-06    -1.1647379E+02     8.3865385E-07    -4.4512251E+01     6.2964473E-06     7.9018219E+01     1.1528863E-06     9.2479955E+00   
                   1.5795903E-06    -1.2229897E+01     1.5840423E-06    -5.6491034E+01     6.9919233E-01     1.7999987E+02     8.2862213E-07     5.3015406E+01   
                   3.7784081E-06    -8.8951205E+01     8.7168341E-07     1.1271943E+02     6.9737802E-06    -8.6942254E+01     3.6398050E-06    -1.0040184E+02   
                   4.2843204E-06    -1.5789111E+02     3.8652639E-06     1.4868571E+02     2.9436407E-06     1.6960855E+02     1.0794951E-06    -1.4579062E+02   
                   1.7484336E-06     6.5774790E+01     4.3412685E-02    -7.6637835E-04     1.5810723E-06    -1.9813884E+01     6.4917159E-06     1.7285358E+02   
                   4.3502096E-07     1.3147269E+02     3.0670671E-06    -2.2826226E+01     1.5171525E-07    -1.0033695E+02     3.7867238E-06     7.8777949E+01   
                   2.8136794E-06     7.1835441E+00     6.6006617E-07    -1.6447662E+02     1.4664953E-06    -1.6537728E+02     6.6340501E-01     1.0341786E-05   
                   3.0668834E-06    -5.9807211E+01     7.5052628E-06     2.2588512E-01     2.0796317E-06    -3.8995693E+01     1.1735261E-06    -6.3472415E+01   
                   6.8794575E-07     2.0370146E+01     9.6580050E-07    -7.8585641E+01     4.6258988E-06     8.3151626E+01     6.7652135E-07     1.6663600E+02   
                   3.0687195E-06     1.4899937E+02     1.4473948E-07     6.4134717E+01     9.0532063E-03    -1.5505979E-03     8.7434759E-07     1.0971662E+02   
                   8.1105115E-07    -4.0166312E+01     3.8929365E-06     1.1416977E+01     8.4616606E-07    -3.5218831E+01     2.1901504E-06     5.5791535E+01   
                   8.3768865E-06    -9.5619616E+01     4.2617446E-07    -1.1012822E+02     3.1008834E-06    -8.0717965E+01     1.1112516E-06    -1.6088744E+02   
                   6.0344195E-01     9.5291235E-05     5.9193913E-07    -5.8630000E+01     1.2224720E-07     1.6647424E+02     1.9968557E-06    -8.2631585E+01   
                   1.8045685E-06     1.5260086E+02     2.6867230E-06    -6.8435716E+01     3.0891952E-06    -1.6328294E+02     1.2206784E-06    -1.7129380E+01   
                   1.4777231E-06     1.6760669E+02     7.3552892E-06     1.7388060E+02     7.8267956E-07    -5.7424226E+01     4.1416333E-02    -7.7274989E-05   
                   1.7468445E-07     2.5303151E+01     1.1460996E-06    -1.0041346E+02     1.5263952E-06    -3.4522577E+01     5.1300104E-06    -1.1563685E+02   
                   3.9635492E-06    -4.9734176E+00     2.4636384E-06    -1.6370116E+02     1.0479029E-06     1.1810539E+02     8.0609245E-06     1.7681443E+02   
                   1.1938157E-07     7.8817297E+00     5.8358276E-01     1.7999991E+02     2.1775826E-06    -2.6548589E+01     1.7962372E-06    -1.0656541E+01   
                   3.4055047E-02     1.7999650E+02     5.2035782E-06    -4.9707628E+01     6.4847864E-07    -3.1258382E+01     5.4934450E-07    -1.0846253E+02   
                   1.0366102E-06    -7.0958677E+01     5.6569919E-07    -1.0377465E+02     8.7246899E-07    -1.5238426E+02     8.8045474E-07    -1.4405168E+01   
                   1.7605811E-02    -5.3178362E-04     1.4684655E-06     1.0775971E+02     3.7756985E-02     1.7999794E+02     2.3996476E-07    -2.2030093E+01   
                   2.2498088E-06     4.9682941E+00     6.3797505E-07    -9.6126565E+01     2.7647171E-06     9.6835012E+01     9.6862203E-07     8.4161437E+00   
                   7.0108328E-07     7.3634505E+01     2.0833037E-06     1.7735459E+02     5.8811459E-01    -5.6960308E-05     3.0943699E-06     1.2757038E+01   
                   2.0659625E-06     1.0158145E+02     8.4993150E-03     1.7999308E+02     3.3068370E-07    -1.4377709E+02     2.9935132E-06     1.0837855E+02   
                   2.6082283E-06     1.5380395E+02     1.4831805E-06     1.4245583E+02     7.1898408E-07    -1.2016959E+02     9.2267636E-07    -4.9974922E+00   
                   1.5669240E-06     3.4517072E+01     1.3239705E-02    -6.1154928E-03     1.4502531E-06     1.4930348E+01     3.3922088E-02     1.7999956E+02   
                   6.3992997E-07     9.9379012E+01     6.5740459E-06    -8.4896379E+01     7.6389381E-07    -1.0211677E+02     1.1066153E-06     1.8623468E+01   
                   1.4888277E-06    -1.2752469E+02     6.7963940E-07     1.0763429E+02     3.7452617E-07    -1.6285241E+02     5.7723803E-01    -2.6122308E-04   
                   9.0454319E-01     1.5915696E-04     1.8020058E-06    -6.8734222E+01     2.2995518E-07    -1.2689305E+02     5.3501043E-07    -1.4895395E+02   
                   5.1060861E-06     9.0863734E+01     7.5240539E-07     1.5364851E+02     1.7935368E-06    -7.3502701E+01     2.4186015E-06    -1.7455923E+02   
                   3.7756885E-02    -1.7999913E+02     6.2347701E-07     6.0401099E+01     1.4715669E-01    -1.7999985E+02     2.9894808E-06     1.2911552E+02   
                   7.9067625E-07     5.9482767E+00     2.2659844E-06    -1.3642003E+02     4.4877311E-06    -1.1240795E+02     1.6417621E-06     1.3863290E+02   
                   7.7796862E-07    -3.5092375E+01     2.8932993E-06    -1.8339529E+01     4.1615780E-02    -1.0587828E-03     2.5380644E-06     7.2476198E+01   
                   6.7047943E-07    -3.4838809E+01     8.3471275E-01     1.0474882E-04     8.7435363E-07     5.3324798E+01     3.0455643E-06    -9.2719487E+01   
                   7.2210771E-07    -3.8307915E+00     4.8885499E-07    -7.6988762E+01     1.2337034E-07     3.3432716E+01     3.5450024E-07     1.1562189E+02   
                   3.3655891E-07     5.4877304E+01     3.3918790E-02     1.7999946E+02     1.1941490E-06    -6.7871291E+01     5.4179939E-03     1.7997754E+02   
                   6.9651909E-07    -8.4728802E+01     6.0454601E-06     8.9692435E+01     1.1963484E-06     1.5944658E+02     3.0478769E-07    -7.2076538E+01   
                   5.0616702E-07     3.3648998E+01     7.7865559E-07    -1.3623206E+02     5.6334208E-07     1.1172594E+02     1.5083041E-02    -1.0366505E-03   
                   5.9618137E-07     1.1275911E+02     1.7629829E-06     6.1438238E+01     7.6122738E-01     1.7999997E+02     1.5100268E-06     1.7399307E+02   
                   1.4863196E-06     9.4415002E+01     1.9577453E-06     2.9887067E+01     5.8917267E-06    -1.0228468E+02     3.3839798E-06     4.0090184E+00   
                   3.1764169E-07     1.1258607E+02     1.2507248E-06    -9.8053681E+00     1.5060274E-06    -1.2370821E+02     3.9317044E-07    -3.2442448E+01   
                   6.3509626E-02    -1.7999902E+02     1.2658972E-06    -1.6603177E+01     1.4428786E-07     1.1364408E+02     3.3349531E-06    -1.4266342E+01   
                   6.2806933E-06    -8.4015306E+01     3.4038828E-06    -1.7663205E+02     6.5359553E-07     1.5834937E+02     1.5138697E-06     1.6924973E+02   
                   6.4457074E-07    -1.3972052E+02     5.1381745E-06     1.1104919E+02     5.3220184E-07     8.4012179E+01     6.9748651E-01     1.7999999E+02   
                   9.0167021E-08     1.0167268E+01     1.2145726E-06     1.6152922E+02     1.7081141E-07     8.3847257E+01     1.0385343E-06    -1.3517009E+02   
                   3.3158456E-07     1.6258561E+02     6.5346298E-06    -8.4287892E+01     4.7539209E-07    -1.6322629E+02     8.3929324E-06     8.0278517E+01   
                   7.6336171E-07     4.2129169E+01     2.8171970E-02    -1.7999931E+02     2.0025576E-07    -1.5918452E+02     6.5539241E-07     1.6302254E+02   
                   7.1112663E-07     8.1048632E+01     1.0088473E-06     5.6043434E+00     2.9734103E-07     1.0062289E+02     8.4475607E-06    -8.9420996E+01   
                   7.6222154E-06    -6.9183177E+01     3.6356702E-06    -8.9269103E+01     5.4991914E-07     1.5663793E+01     7.3641762E-07    -1.3539090E+02   
                   6.9919201E-01     1.7999997E+02     1.0475009E-06    -1.2218767E+02     1.2909078E-06     6.3619786E+01     5.9805043E-07    -1.2100057E+02   
                   3.1243962E-06     8.6471753E+01     7.6203228E-07    -1.0960990E+02     7.3026701E-06    -9.6536394E+01     3.4844861E-07     1.0674939E+02   
                   1.0790405E-06     1.4553529E+02     1.0346395E-06     1.3510079E+02     2.0299705E-02    -1.7999821E+02     7.0072656E-07    -1.2510843E+02   
                   3.0522044E-06     9.8507468E+01     5.1468874E-07    -3.4909825E+01     9.1462167E-06     8.6938078E+01     1.7567439E-06     1.3057913E+02   
                   2.5869244E-06    -1.5730055E+02     1.1332667E-06     1.5424495E+02     1.5740440E-06     1.4664567E+02     4.2270803E-07    -5.0026250E+01   
                   1.3715074E-06    -5.9795767E+01     6.6340351E-01     1.9973639E-05     1.2190442E-06    -7.1613137E+01     8.0141172E-06     1.7838237E+02   
                   9.9635558E-07     2.7060175E+00     2.9635227E-07     1.1426545E+02     7.2329927E-07    -1.7993440E+02     1.4522064E-06    -1.8219509E+01   
                   3.2238559E-06     2.8740768E+00     7.2906021E-07     1.2475870E+02     8.1442949E-07    -8.3074153E+01     6.5314116E-02     1.7999982E+02   
                   6.2122147E-07     1.0456381E+02     6.3821184E-06     1.0644778E+00     1.9439402E-06    -1.9526190E+01     2.1758539E-06    -7.2746413E+01   
                   9.7121078E-07    -1.0310348E+00     1.7866850E-06     4.2829760E+01     6.2492197E-06     8.4178005E+01     2.3839533E-07    -1.0556027E+02   
                   6.5111050E-07     1.4028710E+02     3.7378761E-07     5.1056216E+01     6.0343986E-01    -4.5285856E-05     5.3424124E-07    -1.6656502E+02   
                   5.0023755E-07    -3.6128059E+01     2.3966332E-06     9.6529669E+00     1.0532240E-06    -3.0105428E+01     4.3972734E-06     1.8183212E+01   
                   1.0122581E-05    -9.2464096E+01     7.4622591E-07    -1.7007044E+02     2.6617618E-06    -1.1949230E+02     1.2705455E-06     1.6684889E+02   
                   2.1192022E-02     1.7999705E+02     7.9376270E-08     6.3795591E+01     5.2125510E-07     1.7137279E+02     1.5562493E-06    -1.9136473E+01   
                   2.9654397E-06     2.5974305E+01     2.0020542E-06    -8.9604717E+00     3.4434079E-06    -1.0217872E+01     7.6454134E-07     1.5359533E+02   
                   3.2113143E-07    -5.4819519E+01     6.9336118E-06     4.4295954E+00     7.1423356E-07    -9.9980202E+01     5.8358109E-01    -1.7999996E+02   
                   1.8912322E-06     1.6782909E+02     6.7637293E-07     1.2986809E+01     2.8974561E-06     1.9961241E+01     3.8657805E-07     2.8049822E+01   
                   2.3478167E-06    -1.7767971E+02     5.2844064E-07     5.2150937E+00     1.1140461E-06     7.2422988E+01     6.3998052E-06    -1.2486291E+00   
                   1.5043917E-06    -1.4187516E+02     6.8271749E-02     1.7999907E+02     3.0058965E-06     1.7999943E+02     1.0431838E-06    -5.3525878E+01   
                   5.8265267E-02     9.8365317E-04     2.0493337E-06     1.0495720E+02     6.5571464E-07    -4.3846136E+01     2.0041120E-07     1.4775616E+02   
                   6.7029953E-06    -9.8314321E+01     1.5908186E-06    -1.5121699E+00     3.3259757E-07     1.2639240E+02     2.9885983E-06    -2.5766122E-01   
                   5.8811404E-01    -5.8559294E-05     9.4091849E-07    -1.1508273E+02     4.1613543E-02     8.4911019E-04     2.2785380E-06     6.5349825E+01   
                   9.9811196E-07     1.6968480E+02     1.1859211E-06    -1.6979449E+01     8.8515692E-06     9.6572759E+01     1.6424021E-06     2.3375068E+00   
                   7.3311342E-07     1.6997644E+02     2.5130040E-06     1.7120484E+02     2.0946313E-02    -1.7999790E+02     5.6825167E-07     2.5571746E+01   
                   2.4928340E-06     9.9922751E+01     4.3021727E-02     5.3652246E-03     6.6706322E-07    -1.6196791E+02     4.1629126E-06     9.2967727E+01   
                   1.5923324E-06     1.7834098E+02     8.7264477E-07     1.4547299E+02     1.2773763E-06    -6.2179362E+01     4.0825436E-07     1.9120536E+01   
                   6.6061013E-07     4.8532959E+01     5.7723920E-01    -6.1186568E-06     9.2295950E-07     4.7246086E+01     1.5083497E-02     1.0721695E-02   
                   4.7120270E-07     1.0486007E+02     1.0444944E-05    -8.7662346E+01     6.7913824E-07     6.2755054E+01     5.8663993E-07     2.1447555E+01   
                   1.2223813E-07    -1.4903976E+02     8.3589709E-07     1.7266710E+02     3.4275488E-07     1.7647784E+02     1.8193471E-02    -1.7999571E+02   
  4.5000000E+09     9.5205673E-01    -1.1896868E+02     7.2760837E-06     1.7302036E+02     1.3553434E-06     1.2765649E+02     1.0416488E-06     1.1129126E+02   
                   6.6062930E-06     4.1732931E+01     1.1676442E-06     5.0431159E+01     2.0361537E-06    -1.1953033E+02     9.6411142E-07    -1.5937482E+02   
                   6.1573404E-02     1.1711768E+02     3.4472248E-06    -1.3604620E+02     1.2906937E+00    -1.4943538E+01     1.1333338E-06     1.5618722E+01   
                   4.0421165E-06    -4.8118927E+01     4.2613920E-07     1.6320617E+02     1.6278903E-05    -1.3237957E+02     1.0712197E-06    -1.6403355E+02   
                   2.8941458E-06    -1.1858240E+02     2.0600196E-06     4.7140470E+00     8.7212256E-02    -5.5109197E+01     2.3992993E-06     1.3271738E+02   
                   1.8859949E-06    -1.4943636E+02     1.2175746E-02    -1.7999639E+02     1.3892318E-06     4.0299800E+01     2.9725912E-06    -9.9325343E+01   
                   8.3986199E-07     9.5157195E+00     9.0975209E-07     5.5750360E+00     2.7372512E-06     1.3626751E+02     1.3476200E-06    -8.0348224E+01   
                   9.2087370E-08    -3.5422743E+01     6.3157533E-03     1.7998101E+02     1.7081193E-06     9.1339078E+01     8.5418624E-01    -1.2111351E-04   
                   1.7055879E-06    -1.5777692E+02     4.3082455E-06     8.2032646E+01     2.0974016E-06    -4.6302291E+01     6.6897163E-07     2.3596200E+01   
                   1.9318493E-06     1.3346321E+02     1.9106692E-06     3.9460692E+01     3.6555196E-07     9.6619847E+01     4.2652405E-02    -1.7340159E-03   
                   3.9043554E-06    -6.2239956E+01     2.2634498E-06    -1.5145703E+02     5.0897924E-02     3.8994749E-04     4.3083531E-07    -2.9449791E+01   
                   1.4706023E-06    -7.2018510E+01     1.7597898E-06    -1.7137489E+02     5.9208328E-06     1.1259735E+02     3.7049450E-06    -1.5095096E+02   
                   6.4637906E-07     2.1465009E+01     3.0312393E-06    -1.7776180E+02     3.9269737E-06     1.3251400E+01     4.3288175E-06     9.7827173E+01   
                   7.7230789E-01     1.7999980E+02     2.1404834E-06    -1.6241793E+02     2.1856566E-06     3.0529833E+01     4.9436855E-06    -1.3846758E+02   
                   9.2196951E-06     8.0922677E+01     3.1226347E-06    -2.1533012E+00     8.4760748E-07     3.2999671E+01     7.8398332E-06     6.4006129E+01   
                   3.4038059E-06     1.2396949E+02     2.0089856E-06     8.1165018E+01     1.2658591E-07    -2.1016587E+01     1.7794938E-02     6.6624822E-04   
                   2.4798467E-06     4.6944190E+01     6.2304991E-07     1.6904789E+02     2.8040740E-06    -1.5733970E+02     1.2059439E-06     1.2100649E+02   
                   1.1610547E-06    -2.5764487E+01     2.4259330E-06     3.9258273E+01     8.3918982E-06     1.6625323E+02     6.5844281E-06    -1.3145935E+02   
                   1.9219567E-06     1.6809798E+02     7.0490253E-01     1.7999994E+02     5.7176282E-06     6.6735382E+01     2.9983450E-06     3.8806992E+01   
                   1.3988016E-06    -7.6788909E+00     1.0545504E-06    -8.3957511E+01     1.5260454E-06     4.3797568E+00     1.0172660E-06     1.3726967E+02   
                   7.3691206E-06     3.2174205E+01     2.8579439E-06    -2.9000023E+01     2.0260337E-06     1.2502560E+02     3.8837017E-07    -3.6958316E+00   
                   7.8667365E-03     1.1959550E+01     2.0205948E-06     1.0341907E+02     1.6960107E-06     1.6953429E+02     1.3882347E-06     4.6253080E+01   
                   1.8717135E-06    -1.0684310E+02     1.3772966E-06     1.7666199E+02     8.0446090E-06     5.5947399E+01     3.5052005E-06    -1.7502670E+02   
                   2.7397680E-06    -7.4981657E+01     6.6013028E-07    -3.6680237E+01     7.0763946E-01     1.7982190E+02     9.1061110E-07     8.8545925E+01   
                   1.0223260E-06    -6.2827009E+01     6.4807852E-07     1.7568402E+02     7.3661474E-06    -8.8950311E+01     6.1193946E-06     1.2659382E+02   
                   6.3839173E-07     1.5437827E+02     6.3222886E-06     1.4126026E+02     1.6928145E-06    -3.4980360E+01     7.0491823E-07     1.5529511E+02   
                   4.1057451E-06    -1.1479208E+02     4.4831158E-02     7.6649598E-04     3.3832684E-06    -8.3128737E+01     6.6682041E-06    -1.6902191E+02   
                   1.0430245E-06    -2.9585874E+01     1.0929402E-06    -1.1568657E+02     4.7236326E-06     1.4882194E+02     8.5235389E-06     1.0518185E+02   
                   3.4041372E-06     5.1867079E+01     5.5950588E-08    -4.2271481E+01     2.9678503E-06    -1.5083148E+02     6.6981914E-01    -1.1827225E-04   
                   9.0870568E-07    -1.4105018E+02     7.6836282E-06    -3.2308310E+00     2.0113831E-06     2.4173178E+01     5.6026613E-06     1.0928064E+02   
                   5.8652102E-06     3.8476448E+01     1.6301500E-06    -1.3760328E+02     5.3505196E-06     8.4456866E+01     1.0987440E-06    -1.3819681E+02   
                   3.9374367E-06     7.0500285E+01     1.2930908E-06    -1.1687137E+02     8.6426379E-03    -1.1560181E-02     7.0795850E-07    -5.2811232E+01   
                   9.5508889E-07    -9.6223595E+01     2.1688452E-06     1.7027459E+02     8.7072167E-06     7.6794395E+01     3.1500423E-06    -1.6576780E+01   
                   9.6219475E-06    -9.2505150E+01     6.9035157E-07     1.5476928E+02     3.3264808E-06     1.3583820E+02     2.8791530E-06    -7.7469888E+01   
                   6.0826551E-01     1.7104000E-05     1.0863694E-06     3.7861387E+01     2.9248128E-07    -7.0179381E+01     2.6941199E-06    -9.4149005E+01   
                   6.8169326E-07     7.5702534E+01     2.3481609E-06    -1.2370549E+02     2.8554768E-06     1.4233650E+02     7.2414264E-07    -3.7854366E+01   
                   2.2782936E-06    -5.9234043E+01     7.2434864E-06     1.6193066E+02     2.3571300E-06    -1.7869947E+02     4.2214498E-02     9.1737662E-04   
                   5.1789546E-07     9.0152602E+01     1.0116438E-06     1.7983458E+02     4.1328024E-07    -1.6797145E+02     3.2170160E-06     8.0028963E+01   
                   2.1285789E-06    -1.5457644E+01     1.1307873E-06    -1.7993256E+02     2.6734509E-06    -1.6266134E+02     9.6655243E-06     1.7735511E+02   
                   1.5831262E-06     1.4912013E+02     5.8790024E-01    -1.7999987E+02     3.0065709E-06    -5.7099572E-01     2.4759617E-06     1.3918315E+02   
                   6.1572056E-02     1.1711761E+02     7.1760021E-06     3.7144408E+01     2.2551999E-06     1.6672765E+02     1.3234593E-06     5.5894113E+01   
                   2.3984629E-06    -1.5366317E+02     1.0612529E-06    -2.2607672E+01     4.6526808E-07    -1.5763325E+01     2.2423539E-06    -1.5276916E+01   
                   1.8899748E-02    -1.1001078E+01     1.6049951E-06    -1.5307544E+02     8.4917241E-02     1.6505207E+02     7.3053543E-06     1.5430116E+02   
                   2.4782676E-06    -2.2389894E+01     6.9141187E-07    -6.1698888E+01     3.4357842E-06     3.2389295E+01     4.1612282E-07     1.7029812E+02   
                   2.4774095E-06     5.8913109E+01     4.7161255E-06     1.2577889E+02     5.9157749E-01     4.5586521E-01     5.7573575E-06    -1.2882171E+02   
                   4.0497494E-06    -1.4642466E+02     6.3133148E-03    -1.7999338E+02     3.3677670E-07     1.4345971E+02     2.2580290E-06     8.4080403E+01   
                   4.8284887E-06     9.6416331E+01     1.9321706E-06     9.4205508E+01     6.2958458E-07    -1.2327138E+02     1.0331160E-06    -5.8400095E+01   
                   3.0632645E-07    -8.6362251E+01     1.2930025E-02     8.6644070E-03     4.5447148E-06    -1.0046502E+02     3.4063922E-02    -1.7999443E+02   
                   5.8806408E-07     1.6664879E+02     6.8265937E-06    -8.8519350E+01     8.3106442E-06     2.1930915E+01     7.5703688E-07     6.8723814E+01   
                   1.3573269E-06     1.7970633E+02     6.2255574E-07    -2.5210208E+01     2.1665421E-07    -8.0354960E+01     5.8143828E-01    -1.3728524E-05   
                   1.2906865E+00    -1.4943687E+01     5.8927495E-06    -1.3926583E+02     2.8291082E-06     1.7999652E+02     1.1403959E-06     1.3385295E+02   
                   1.2639216E-05     7.3837598E+01     1.0310566E-06     1.3989836E+02     2.2356700E-06    -9.8533826E+01     2.2067494E-06    -1.6098784E+02   
                   8.4922938E-02     1.6505589E+02     2.9541149E-06    -6.0216944E+01     1.0000009E+00     6.0112798E+01     3.7071543E-06    -3.4024395E+01   
                   4.8559452E-06    -6.5855658E+00     1.0924921E-07    -1.3761646E+02     1.6223094E-05    -9.4838222E+01     1.7320730E-06     1.3525323E+02   
                   3.2510170E-06    -8.3321289E+01     2.8261954E-06     1.5682607E-01     1.1084950E-01    -1.4942485E+01     1.4669188E-06     1.1838658E+02   
                   5.3812217E-07    -1.3345108E+02     8.5418380E-01    -6.0021133E-05     7.0850876E-07    -1.4866936E+02     3.0861480E-06    -9.4610023E+01   
                   6.0369378E-07    -1.3477328E+02     9.1865667E-07     1.2170332E+02     2.1090066E-06     1.7839334E+02     5.3399179E-07     3.7799541E+01   
                   2.9833991E-07     1.2788298E+02     3.4066512E-02     1.7999898E+02     1.6701431E-06     8.4852991E+01     7.7427316E-03    -1.1306980E-02   
                   7.2295087E-07    -1.9982591E+00     7.2131571E-06     8.6191625E+01     9.5636737E-07    -6.2404657E+01     7.5857391E-07     7.2548316E+01   
                   7.6901117E-07     1.6760981E+02     3.4388645E-07     3.6578976E+00     6.7656962E-07     4.1963458E+01     1.2855070E-02    -3.1345452E-03   
                   1.3394053E-07    -4.1870423E-01     1.2657056E-06     5.3253850E+01     7.7230519E-01     1.7999998E+02     1.0254017E-06    -1.3493407E+02   
                   1.1792593E-06     1.7255629E+02     2.9878944E-06    -8.0502820E+00     6.3431870E-06    -8.3617460E+01     3.3248030E-06    -3.2534846E+00   
                   1.3729055E-07    -5.3747657E+01     1.4401831E-06    -1.1032992E+02     5.5668611E-06    -1.7453825E+02     2.1778498E-06     1.1400142E+02   
                   6.7932524E-02     1.7999995E+02     4.5991837E-07     9.8133470E+01     3.1394112E-06     1.6145412E+02     2.8253778E-06     2.9436223E+00   
                   9.7834064E-06    -9.1155611E+01     3.4955488E-06    -1.7251154E+02     5.1135088E-07     4.7857580E+01     2.9399603E-06    -1.6991976E+02   
                   2.3555148E-07    -1.6037425E+01     4.5512450E-06     1.1226724E+02     4.1950616E-07     1.2326145E+02     7.0490296E-01     1.7999998E+02   
                   1.1489148E-06    -2.1133217E+01     1.2844993E-06    -1.5116079E+02     7.9607797E-07     7.6421660E+01     8.2841754E-07     1.6648309E+02   
                   6.0726416E-07    -1.5159947E+02     7.4165830E-06    -8.4602073E+01     1.4754863E-07     4.6579961E+01     5.7465914E-06     1.0080521E+02   
                   8.1216899E-07     4.6520272E+00     3.0086040E-02    -1.7999961E+02     1.1942268E-06     1.0275109E+02     9.4614245E-07     1.5882673E+02   
                   5.5464621E-07    -1.2975356E+02     1.3226395E-06     1.3245611E+01     5.7232511E-07     8.0455013E+00     1.1692007E-05    -8.8353693E+01   
                   1.4857766E-05    -1.5239816E+02     2.3125694E-06     1.6953685E+02     2.4628917E-07    -8.6511719E+01     2.7116520E-07     1.0959571E+02   
                   7.0763986E-01     1.7982190E+02     5.8436995E-07    -1.2435336E+02     8.9238056E-07    -1.7660560E+02     3.9245827E-07    -1.4266443E+02   
                   4.0897584E-06     6.6875849E+01     2.0291481E-06    -5.6258579E+00     1.8532781E-05    -1.0985667E+02     1.3969872E-06     7.9030686E+01   
                   1.6092166E-06     1.4470823E+02     1.1333244E-06    -5.8216033E+01     2.0035460E-02     1.7146392E+02     7.3544910E-07    -1.1067306E+02   
                   1.7839099E-06    -1.7741203E+02     3.7672935E-07     1.3327480E+02     1.0946966E-05     9.1720444E+01     2.6999230E-06     1.1531821E-01   
                   1.4856642E-06    -5.8478807E+01     4.4751427E-07    -8.5141883E+01     1.4869750E-06    -1.3903083E+02     1.4234390E-06     6.8385950E+00   
                   8.6371542E-07     1.0309389E+02     6.6981807E-01    -2.6841696E-05     1.2637999E-06    -1.1762275E+02     8.0981948E-06    -1.7514682E+02   
                   7.2873409E-07     4.4915058E+01     4.9542666E-07     1.6823884E+02     1.8131336E-06     2.3000846E+01     2.2337959E-06    -3.6336290E+01   
                   1.9725232E-06     4.5566669E+00     5.6231255E-07    -1.2491480E+02     1.8329516E-06    -5.3258404E+00     6.6959453E-02     1.7999981E+02   
                   1.1834433E-06     1.5097461E+02     6.7314230E-06    -3.1564271E+00     2.2458336E-06     7.1943919E-01     2.4444685E-06    -1.0087175E+01   
                   2.9450180E-06     5.0423666E+01     3.1321095E-06    -1.5680497E+02     7.5260652E-06     8.9142491E+01     1.0063021E-06     1.7737276E+02   
                   2.6669015E-06     1.0478858E+02     2.0280583E-07    -5.9381076E+01     6.0826420E-01    -1.0002024E-04     8.4254177E-07    -1.6827371E+01   
                   7.4755820E-07    -1.2794588E+02     1.0732325E-06     1.6710090E+02     4.2105018E-07    -8.1347481E+01     2.4550038E-06     1.3009782E+01   
                   1.1645160E-05    -9.2622972E+01     1.2839175E-06     1.6109999E+02     1.7841899E-06    -1.7585150E+02     6.0372552E-07    -1.2463330E+01   