! S-parameter export from POSTFEKO
! Filename: circular_3wg_5modes
! Creation date: 2020-02-27 14:06:16
! 
# Hz S MA R    5.0000000E+01 
  4.0000000E+09     1.8336508E-01    -1.3074403E-03     1.2212340E-06    -5.0822674E+01     1.7112650E-06    -1.3912583E+02     3.3799144E-07    -2.9237091E+00   
                   1.2808101E-05     1.1162343E+02     1.7740418E-06    -1.0422806E+02     1.6857706E-06     8.4014611E+01     2.9286236E-06    -1.7913301E+02   
                   3.2435965E-02     1.7999619E+02     3.3072587E-06    -1.0057677E+02     4.2650111E-01     1.7280994E-04     4.1574503E-06    -1.3344329E+02   
                   5.8460176E-07     1.7350086E+02     1.0294083E-06     1.0159795E+01     1.7978203E-06    -1.2020334E+02     7.4099421E-07    -1.2890628E+01   
                   1.0488936E-06     1.6976465E+02     4.6143024E-07     1.5048848E+02     3.6615285E-02     1.4749284E-04     3.8713533E-06     1.4558174E+02   
                   1.1096022E-06     5.2436156E+01     1.2643155E-03     1.7999769E+02     1.4001355E-06     8.7205693E+01     2.7648287E-06    -8.5159011E+01   
                   9.7779738E-07    -8.3779031E+00     6.1164032E-07     8.5602685E+01     1.6661978E-06     1.7091607E+02     3.8385311E-07     6.1866184E+01   
                   3.8725575E-07    -1.0215124E+02     6.1025214E-03    -1.7998608E+02     6.1828871E-07     7.6088400E+01     1.5605308E-01     1.9959313E-04   
                   4.0379057E-07     1.0823100E+02     1.3025475E-07     8.1887572E+01     1.1115147E-06    -1.5972115E+02     2.3337444E-07     7.0976601E+01   
                   1.2515403E-07     8.8731619E+01     1.4312104E-07     1.1587068E+02     1.5192496E-07    -1.7241799E+02     8.6793973E-03    -4.1992268E-04   
                   1.7224779E-06    -1.5573081E+02     2.0477246E-06     1.6239826E+02     4.5113665E-02     7.4388060E-05     7.2697353E-07    -3.9542657E+01   
                   1.0527199E-06     2.4849147E+01     1.9824463E-06     1.6734236E+02     5.8684960E-06     6.9252844E+01     6.0195164E-06     1.7898279E+02   
                   1.7749273E-06    -2.2105622E+01     2.8795169E-06     8.9703488E+01     7.6924585E-07    -1.3540516E+02     3.1323317E-06     7.8616850E+01   
                   6.1675803E-02     1.7999987E+02     3.4192721E-08     1.6650144E+02     5.9556167E-07    -2.5482378E+01     1.6813137E-07    -4.4634218E+00   
                   3.6947374E-07     1.9636587E+01     2.0540535E-07    -1.7055873E+02     2.3858876E-07    -1.6464667E+02     1.1439327E-06    -3.3467975E+01   
                   7.3202699E-07     8.1859676E+01     3.5148464E-06    -9.0853877E+01     3.8774231E-07    -8.1927785E+01     1.4759647E-02     1.0350792E-03   
                   1.2242042E-06    -7.5881745E+01     4.4385884E-07    -3.3052596E+01     1.4985724E-06     1.3162009E+02     2.4451469E-07     1.8633825E+01   
                   2.8171973E-07     9.9499618E+01     2.9589061E-06     9.1747122E+01     3.5476087E-07     1.3350002E+02     5.4017095E-07    -1.6796792E+02   
                   1.5925263E-07    -1.7010672E+02     2.3442244E-02    -1.7999998E+02     2.5953688E-07    -1.5438157E+01     1.2016011E-08     5.4864127E+01   
                   1.0911882E-07    -4.9909521E-01     8.5115330E-08     1.7234904E+02     6.3638583E-08    -1.0593719E+02     5.3042425E-07    -4.5907779E+01   
                   6.2899993E-06     4.6518552E+01     3.2076154E-06    -2.2751107E+01     2.4930731E-06     6.8785340E+01     1.3753359E-06     4.3222634E+01   
                   7.7599851E-03     1.4241558E-02     7.0052849E-07     1.5109953E+02     1.3484115E-06     9.3067154E+01     7.0271574E-07     9.4338891E+01   
                   2.8071931E-06    -1.4357955E+02     2.8299274E-06    -1.5449675E+02     1.2203605E-06     1.5644397E+02     6.0509883E-06    -1.6554292E+02   
                   5.6759241E-07    -6.7514869E+01     8.8989039E-08     1.5362342E+02     2.4037457E-02     1.7999479E+02     4.0367310E-07     1.0962497E+02   
                   8.0296954E-07     1.7321534E+02     2.9508383E-07    -7.0874136E+01     3.4028411E-07     4.8802214E+01     1.5730701E-07    -2.1590583E+00   
                   2.3437959E-06    -1.6608094E+02     7.6545114E-07    -1.7505642E+02     1.6083248E-06    -1.6456233E+02     1.1262170E-06    -1.4131192E+02   
                   1.5268240E-06     6.9324423E+01     4.0905786E-02    -1.2384669E-03     1.2689057E-06     1.2343912E+02     8.1805468E-06     1.7496193E+02   
                   1.0932372E-06     7.6827408E+00     1.1772387E-06     1.7970201E+02     9.0701286E-07    -1.5817633E+02     6.1142128E-07     5.2438121E+01   
                   2.2264665E-07    -1.6465491E+01     5.7050482E-08    -4.3066013E+01     2.3483506E-07     1.3925781E+02     1.4755756E-02    -2.0436538E-04   
                   1.8198228E-07     6.6591987E+01     3.9773268E-08    -7.2312123E+01     9.4411738E-08    -1.7983865E+02     2.0227103E-07    -1.4229932E+02   
                   2.0043371E-06     1.7023026E+02     1.7791183E-06    -9.7419516E+00     5.7096591E-06     8.2133588E+01     9.7643734E-07     6.7292567E+01   
                   4.1435774E-07     6.6947422E+01     1.6301624E-06    -1.4061402E+02     7.4408671E-03     4.8419158E-03     9.6709336E-07     5.3585098E+01   
                   5.5453334E-07    -1.3114379E+02     1.2289245E-06     9.3148497E+01     6.2790869E-07     5.1475710E+01     1.9145343E-06    -1.4908341E+02   
                   6.0493210E-07    -9.5875336E+01     3.9305566E-08     8.2371973E+01     9.7054204E-07     7.4950837E+01     2.7211303E-07    -6.4583698E+01   
                   5.0552598E-03    -5.9386177E-04     6.6365086E-08     8.8304048E+01     5.1823349E-08     9.4368049E+01     1.3493577E-06    -1.7118133E+02   
                   4.2756824E-06    -1.3727774E+02     1.3941463E-06     8.6204984E+01     6.2644094E-06    -1.7698930E+02     1.0930500E-06     3.4293689E+01   
                   7.3629122E-08     1.3740497E+02     7.9437335E-06     1.7900810E+02     1.7147284E-06     1.1548216E+02     3.8713887E-02     5.6241578E-05   
                   1.4962344E-06     6.8344762E+00     2.9299141E-06     1.5564951E+02     1.4498248E-06    -1.7329832E+02     1.5626537E-07     6.3337341E+01   
                   2.7026347E-07    -4.8631241E+01     9.0859682E-08     1.2121399E+02     9.6216910E-07     1.5268078E+02     8.6195147E-08     1.7232792E+02   
                   2.7932099E-07    -5.4117992E+01     3.9594850E-03     1.7999884E+02     2.7237471E-08    -1.2657161E+02     1.0693709E-06    -1.0862870E+02   
                   3.2437640E-02    -1.7999978E+02     6.4734206E-07     1.4881325E+02     1.4952775E-06     3.3219906E+01     9.8287185E-07     7.2372576E+01   
                   3.6472744E-06    -7.3636510E+01     1.0253069E-06     5.3443667E+01     2.4675823E-06    -7.8157024E+01     1.9727268E-06     1.4862527E+01   
                   1.1830430E-02    -4.0404701E-04     6.3752190E-07    -2.6195193E+01     1.6649623E-02    -1.7999976E+02     3.7967904E-07     3.6421984E+01   
                   2.4996019E-07     5.0705035E+01     7.1083152E-08     1.3371780E+02     2.3560903E-07     1.2252941E+02     1.7543123E-07     8.2656275E+00   
                   2.4673516E-07    -8.9538464E+01     3.7047012E-08    -6.0883104E+01     2.5885261E-03    -8.3544383E-04     9.3622311E-07     1.4307838E+02   
                   9.9453180E-07    -1.1197044E+02     6.1013671E-03    -1.7998788E+02     1.0215627E-06    -1.0000627E+02     3.9883049E-06     8.6167424E+01   
                   1.2708666E-06    -1.3273397E+02     2.4936306E-07    -1.7346695E+02     8.1756912E-07    -1.6357202E+02     7.3315585E-07     8.0057983E+01   
                   3.2380276E-07     9.0357309E+01     7.3995131E-03     9.8681351E-04     4.1767596E-07    -9.2994026E+01     6.2815829E-03     1.7998322E+02   
                   1.3726045E-07     8.6155578E+01     2.5236150E-07    -9.9443628E+01     1.1690323E-06    -1.3536107E+02     1.6765347E-07    -5.0927336E+01   
                   2.5217012E-07     1.7338264E+01     2.2041254E-07     5.4246501E+01     1.4674795E-07    -1.4167915E+02     2.8936012E-03     1.5651890E-03   
                   4.2649975E-01     6.0497607E-05     2.9068999E-07     1.1595526E+02     1.9672624E-07    -1.7733919E+02     4.3223601E-07     1.7690379E+02   
                   3.1234835E-06     8.8328342E+01     6.7301461E-07    -1.6949804E+02     3.9713778E-08     1.3401545E+01     1.1059779E-06    -1.7732911E+02   
                   1.6648639E-02     1.7999959E+02     7.6620188E-08    -1.1484073E+02     3.1191575E-01    -1.7999995E+02     1.2419275E-06    -1.5108082E+02   
                   3.4985794E-07     7.8092653E+01     1.5434514E-06     5.9343729E+00     3.5804399E-07     1.7294977E+02     1.6675567E-07     7.7037716E+01   
                   1.8785386E-06     9.8412581E+01     8.0675722E-07    -1.5821176E+02     4.7730588E-02     2.0490066E-04     2.0622662E-06     1.5197668E+02   
                   5.5382002E-07    -1.0709188E+02     1.5605206E-01     7.1046520E-05     6.1434521E-08    -1.3973465E+02     6.8516774E-07    -9.3369785E+01   
                   1.6940672E-07    -7.6088914E+00     1.1975149E-07     8.8813955E+01     2.1548103E-07     1.7903165E+02     5.7825083E-08    -1.0757488E+02   
                   9.1103694E-08     8.2386728E+01     6.2813859E-03     1.7999961E+02     8.3214936E-07    -1.0657852E+02     1.7481995E-03     1.7997586E+02   
                   7.3028089E-07    -1.7743151E+02     4.9195351E-07     1.3111564E+02     4.1925024E-07    -1.1960191E+02     1.7176433E-07     1.7432451E+02   
                   2.0319911E-06     4.4619534E-01     3.5670054E-07    -1.6915697E+02     2.0366276E-07    -1.7069768E+02     1.6253532E-02    -1.0358438E-03   
                   1.5612511E-06    -1.7478819E+02     1.4742976E-07     3.7868454E+01     6.1675708E-02     1.7999987E+02     5.5474668E-08     1.6641932E+02   
                   7.5651538E-08    -1.6050336E+02     1.9451656E-07     7.4184079E+00     4.9665035E-07    -9.0404061E+01     4.7023206E-07    -7.0115154E-01   
                   6.9877933E-08    -1.8034291E+01     9.8328622E-08     1.0695952E+02     1.5119109E-06    -1.3797808E+02     1.2405242E-06    -6.8357185E+01   
                   7.0418110E-02     1.7999960E+02     1.7751018E-06     1.6529919E+02     6.4284009E-07     2.6477035E+01     2.5085532E-06     1.7278950E+02   
                   2.0150814E-07    -1.2154038E+02     1.4001210E-06     6.9230898E+00     4.9013333E-07     1.7523448E+02     8.3879244E-07     2.7453351E+01   
                   6.5224890E-07    -9.1759014E+00     7.6032703E-08     1.0194623E+02     3.6508947E-08     1.4015852E+02     2.3442158E-02     1.7999990E+02   
                   1.0038664E-07    -8.2784920E+01     2.6783699E-08    -6.6000794E+01     1.7530846E-07    -9.8018479E+01     6.8482730E-08    -1.7761778E+02   
                   1.0902707E-07     1.3678809E+02     3.4513498E-07    -9.4729056E+01     1.0165425E-06    -7.5305453E+00     7.5347131E-07    -6.1928900E+01   
                   1.9895713E-06    -1.7991675E+02     3.1719961E-02     1.7999994E+02     1.5068954E-07    -1.3240242E+02     1.0461974E-06    -1.7148239E+02   
                   9.6528038E-08    -4.9709867E+00     1.4615798E-06     5.0699128E+00     1.3938310E-07    -1.4810427E+02     3.3236938E-07    -1.3824269E+02   
                   2.3405234E-06    -8.7986364E+01     4.7434918E-07     1.6405252E+02     5.4441471E-08     8.1543557E+01     6.3177313E-08     9.4715787E+01   
                   2.4038460E-02     1.7999990E+02     4.2753935E-08    -1.2953226E+02     1.6167378E-07     1.2570390E+01     1.2692386E-07    -7.4936825E+01   
                   3.3572064E-07     8.6139065E+01     2.6078036E-07    -1.4313212E+02     2.4157521E-06    -4.1234037E+00     2.5098200E-06    -1.6540445E+02   
                   7.5005059E-07    -3.3190059E+01     6.9502265E-07     4.5382312E+01     2.2453723E-02     1.7999989E+02     2.7562531E-07     3.5489102E+00   
                   1.1647583E-06    -5.5909506E+01     5.5594581E-08     9.2939479E+01     9.3043104E-07     4.4864790E+01     2.0651557E-06    -1.2157074E+02   
                   5.7043038E-07    -1.6894454E+02     1.1425466E-07     1.0975858E+02     1.8818669E-07     1.9088982E+01     1.8623384E-08    -1.4104049E+02   
                   4.6799126E-08     1.6584253E+02     1.4755715E-02     1.5372437E-05     2.5590045E-08    -4.3781091E+01     2.5113235E-07    -1.7693935E+02   
                   3.5396238E-08     2.9231126E+01     7.3797715E-08    -9.5182025E+01     7.1349592E-07    -1.0804968E+01     1.2403724E-06     1.4892622E+01   
                   1.8183937E-06    -1.6238049E+02     1.6259275E-06    -1.7290120E+02     6.4693402E-07    -1.2412360E+02     7.1517797E-02     1.7999990E+02   
                   1.7605168E-07     1.5623852E+02     2.0937461E-06     8.3927939E+00     1.3563452E-06     1.6324932E+02     6.5503645E-07     7.2028261E+01   
                   3.0529088E-07     1.1257770E+02     5.8723544E-07    -5.2586044E+00     1.1376429E-07     9.6644614E+01     4.0659894E-08     1.1845537E+02   
                   1.0302575E-07     1.2501827E+02     4.2991675E-08     8.3287532E+01     5.0555031E-03    -7.6017801E-04     7.9313776E-08     9.4453989E+01   
                   5.5060347E-08     5.9336736E+01     2.4816865E-07    -4.1146516E-01     3.5854821E-07    -1.4695135E+02     7.8558612E-07     2.0617845E+01   
                   4.4440770E-07    -4.8939247E+01     3.3514374E-07     8.4694320E-02     1.4180470E-06     7.3613893E+00     7.2208401E-07    -1.1493548E+02   
                   2.3548498E-02    -1.7999997E+02     1.0856533E-06    -9.9747423E+01     5.4522573E-07    -1.7500547E+02     1.2347034E-06     1.5150577E+02   
                   3.7766919E-07     6.5952488E+01     2.3940461E-07     5.4966385E+01     5.6387547E-08     1.5283097E+02     4.7719184E-08    -1.7280378E+02   
                   3.8943548E-08     2.2363337E+01     7.6904040E-08     1.9144608E+01     2.9626521E-08    -8.5892295E+01     3.9594013E-03     1.7999980E+02   
                   2.6514389E-08     5.1966562E+00     7.3465467E-08    -7.2226754E+01     1.5899156E-06     1.5548728E+02     5.5896219E-07     1.0618407E+02   
                   1.6589600E-06     2.2748395E+01     2.2418105E-06    -2.7265633E+00     1.5870803E-06    -1.7974942E+02     2.6655826E-06    -1.7306234E+00   
                   1.9625926E-06    -9.1153406E+01     7.4974033E-02     1.7999998E+02     4.1985327E-07    -2.8534690E+01     7.3145716E-07    -7.4913305E+01   
                   3.6614067E-02     1.4320995E-05     7.6503546E-08    -3.3857014E+01     9.4121756E-08     1.5562433E+02     2.3237353E-08    -1.0530304E+02   
                   5.0422431E-07     9.2783484E+01     3.4938641E-08    -3.9117110E+01     7.4495282E-08     8.2706795E+01     4.5536997E-08     1.7286059E+02   
                   2.5886689E-03    -1.3706088E-03     8.2453688E-08    -1.1864337E+02     4.7729903E-02     4.6145818E-04     4.5217081E-07    -8.3190161E+01   
                   3.1384000E-07    -1.0001480E+02     1.9040128E-07     1.9684709E+01     6.7839748E-07     8.7443254E+01     1.4857571E-06     1.7258189E+02   
                   3.9911646E-07    -5.3045286E+01     3.7660170E-07     9.3266802E+00     2.4346695E-02     1.7999924E+02     7.8771354E-07     1.5200843E+02   
                   2.7575567E-07    -2.2587123E+01     8.6791004E-03     2.4366523E-03     6.8622813E-08    -1.0626068E+02     2.8856200E-08     1.1676902E+02   
                   2.0077667E-07    -1.7202569E+02     1.2599059E-07    -1.6270363E+00     9.4987441E-08     1.4017323E+02     2.5143969E-08    -6.4071205E+01   
                   1.0095525E-07     7.1884153E+01     2.8936381E-03     4.5637193E-04     6.8920718E-07     1.2631538E+02     1.6255170E-02    -5.7406597E-04   
                   9.0517273E-07     9.6711814E+01     1.1061673E-06    -9.7111338E+01     1.0145915E-06    -1.6896204E+02     3.0854453E-07     1.6237649E+01   
                   3.4201631E-06    -1.5571654E+02     3.4001398E-07    -1.3059435E+02     8.8235392E-07    -1.0232113E+02     2.2182928E-02    -1.7999899E+02   
  4.5000000E+09     7.4358872E-01    -1.2925525E+02     1.4238763E-06     8.8693843E+00     6.0182059E-07    -7.5545565E+01     2.6814956E-07     8.1255585E+01   
                   1.1307862E-05     3.3980593E+01     1.9567115E-06     1.3894188E+02     7.5884028E-07     4.1043340E+01     3.7627240E-06     1.3086937E+02   
                   4.2313799E-02     1.2486470E+02     3.7564783E-07    -1.7113136E+02     1.0731189E+00    -4.4356926E+01     5.2394141E-06     9.4744514E+01   
                   6.3054471E-07     5.4924553E+01     2.0133746E-07    -8.7140081E+01     4.2005171E-06    -1.0253595E+01     8.5651347E-07     9.2385249E+01   
                   4.1425803E-06     2.3632159E+01     1.0758647E-06     8.3160464E+01     6.2974002E-02    -8.1789358E+01     2.2293732E-06    -3.3749860E+01   
                   1.8131215E-07     2.2594984E+01     1.4370676E-02     1.7999923E+02     7.7837098E-07     8.9342169E+01     3.0609377E-06    -8.7356099E+01   
                   5.2809605E-08     4.6581099E+00     6.6197508E-07    -1.2522104E+02     1.5265872E-07    -2.7318156E+01     3.2839821E-07    -4.3033722E+01   
                   3.2351061E-07    -9.7070465E+01     3.9427871E-03     1.7999998E+02     1.4439633E-06     6.0285221E+01     2.0326743E-01    -1.3589930E-04   
                   1.7987558E-08     1.5293666E+02     4.3595820E-07     6.3224801E+01     8.7531140E-07     1.7518965E+02     2.5416548E-07     3.5969250E+00   
                   4.3634131E-07     4.6200683E+01     3.3216875E-07     5.5722144E+01     2.3070160E-07    -6.0236107E+01     1.0823825E-02    -1.9649278E-03   
                   2.1716557E-06     1.2463761E+02     1.1771194E-06     1.2923218E+02     4.9071869E-02    -4.8707544E-04     2.2440896E-07    -1.0795246E+02   
                   1.2084584E-06     9.7087921E+01     2.1665119E-06    -1.7077497E+02     6.9556721E-06     9.1106359E+01     5.9842425E-06    -1.7867472E+02   
                   4.1561348E-07     5.4607451E+01     6.4931593E-07    -1.0696355E+02     3.1811486E-06     1.2199228E+02     4.2603515E-07    -1.0679672E+02   
                   7.2974907E-02     1.7999992E+02     1.3193942E-07     9.1162981E+01     1.1074497E-06    -1.6661934E+02     1.6025068E-07     2.4419305E+01   
                   5.1106023E-07    -1.4970466E+02     1.2352175E-07     8.9512883E+01     8.2123950E-08    -1.4902976E+02     4.6287137E-07    -1.5468740E+02   
                   1.8680833E-06    -7.7977225E+01     1.7197779E-06    -9.9558663E+01     4.3880945E-07     5.5384560E-01     1.6046089E-02     3.7910097E-04   
                   2.4073251E-07    -1.2370490E+02     5.3076610E-07    -2.3340870E+00     2.5601235E-07    -9.9898318E+01     3.3362582E-07    -3.2514328E+00   
                   1.5053172E-07    -8.6015715E+01     3.8035310E-06     8.8959765E+01     8.5833235E-07    -4.3673733E+01     1.8445600E-06     4.0520159E+00   
                   3.4796257E-07    -1.7711401E+02     2.6497873E-02    -1.7999972E+02     1.4996932E-06     1.2980671E+02     8.7407404E-08    -1.0851683E+01   
                   1.5457664E-06     1.2383815E+02     6.8517156E-07     1.7545634E+02     3.4225510E-07    -1.1618863E+02     9.3439565E-08     1.3968157E+02   
                   1.4462919E-05     2.7392803E+01     9.8123970E-07    -1.3331429E+02     2.1916844E-06     2.2619390E+00     1.1350824E-06     6.4956896E+01   
                   6.3962549E-03     1.0311740E+01     3.4245400E-07     1.3642343E+02     5.2499928E-07     1.3230542E+02     7.2664429E-07    -1.2353451E+02   
                   3.3858917E-06    -1.0087499E+02     2.2196501E-07     8.6524082E+01     2.0457406E-05     4.7163745E+01     7.3380026E-06    -4.6735999E+00   
                   4.4201306E-07    -1.7895963E+02     1.6846169E-06     2.9548960E+01     2.6847525E-02     1.7570999E+02     4.5013627E-07     1.2844508E+02   
                   2.7752227E-06    -3.3847243E+01     4.0763573E-07    -1.3214733E+02     6.3341420E-07     1.9337083E+01     5.8884364E-08    -3.0747287E+01   
                   1.2198909E-06     1.0919744E+02     1.1879187E-06    -1.3981961E+02     1.8316822E-06     1.6137448E+02     4.2502902E-07    -3.9033260E+01   
                   5.1122907E-07     4.9041407E+01     4.2280891E-02     5.3738743E-04     3.4951233E-07     1.7809788E+02     8.2198582E-06    -1.7754482E+02   
                   5.1156749E-07    -1.5007871E+01     6.4976566E-07     6.5040315E+01     2.9970189E-06     1.5074921E+02     1.1530339E-07     8.1635270E+01   
                   1.6393648E-07     4.8186940E+01     1.2578031E-07    -1.4701672E+02     9.5754178E-08     1.5043138E+02     1.6464885E-02     1.1635590E-04   
                   2.3937219E-07    -5.1730257E+01     2.3089443E-08    -1.0580098E-01     2.6076162E-07     8.4870111E+01     5.0059820E-07     5.5406708E+00   
                   1.7000745E-06    -1.4158179E+02     2.1445538E-06    -1.5966476E+01     8.3618524E-06     8.1443993E+01     7.0621509E-07    -1.5583757E+01   
                   1.1740199E-06    -1.5032115E+02     1.7705546E-06     9.6199405E+01     7.0340784E-03    -2.5256572E-03     6.0587100E-07     8.9606268E+01   
                   3.8110979E-07     7.3416853E+01     9.3921042E-07     1.0126631E+02     2.7013673E-06     1.3185089E+02     6.2993962E-06     4.2130031E+01   
                   1.2285530E-06    -7.7579409E+01     7.7920138E-07    -3.7327814E+01     1.4804942E-06     5.4121589E+01     1.6991916E-07    -1.4408711E+02   
                   5.5291763E-03     7.1497154E-03     5.6021861E-07    -3.7826014E+01     1.9902586E-07    -4.3432297E+01     1.3477441E-06     3.5977813E+01   
                   3.2220591E-06     1.2886918E+02     6.0943668E-07     9.8811810E+00     6.1003310E-06     1.7470484E+02     1.6221708E-06    -3.5557083E+00   
                   1.2024214E-06    -8.6900631E+01     7.4601880E-06     1.7732363E+02     1.6057840E-06     9.5263280E+01     3.9479650E-02     2.1020598E-04   
                   2.5498675E-06    -1.1508414E+01     3.6284783E-07     3.4874210E+01     3.6367647E-06     1.4258522E+02     3.6798963E-07     1.7939435E+02   
                   5.4982903E-07    -7.9611047E+00     9.4226410E-08     1.6935880E+02     2.1210128E-07    -1.5022092E+02     3.2615486E-07     1.6995396E+02   
                   1.2106392E-07     5.9470201E+01     4.3030566E-03     1.7999913E+02     3.0607143E-07     8.5124916E+01     3.4301991E-07    -1.7727246E+02   
                   4.2320198E-02     1.2486408E+02     9.7997911E-07     1.0333617E+02     1.7389225E-06     7.7204894E+01     8.7099046E-07    -1.6368173E+02   
                   4.4284951E-06    -9.7842952E+01     5.2422027E-07    -1.7706102E+01     1.5797025E-06     9.5972578E+01     2.2100817E-06    -5.0587114E+00   
                   1.2630533E-02    -9.5426217E+00     9.1196551E-07    -9.6657614E+01     6.4710784E-02     1.3564335E+02     4.6120394E-06     1.0545436E+02   
                   7.1258504E-07     2.5783873E+01     1.1972939E-06     9.3966195E+01     2.4400736E-06    -1.6671490E+01     5.3928343E-07    -2.4218311E+01   
                   1.4879105E-06     9.8032098E+01     5.5392483E-07    -1.2015662E+02     5.3609002E-03     4.4518505E+01     9.7541547E-07     1.7251787E+01   
                   1.1974990E-06    -1.7615874E+02     3.9416714E-03     1.7998515E+02     1.1745278E-06    -5.9098772E+01     4.2373754E-06     9.5261163E+01   
                   1.3665658E-06     3.5726933E+01     2.1407619E-07    -1.6718203E+02     4.2142611E-07     6.7716659E+00     2.6664735E-07    -1.5262223E+02   
                   7.8702599E-07    -5.1905779E+01     7.0477134E-03    -9.6825187E-03     2.6471213E-06    -6.9471590E+01     8.0237332E-03    -1.7999354E+02   
                   7.8530162E-07    -6.1010001E+01     8.7461105E-07     1.2065318E+01     3.1641722E-06     1.6275808E+02     4.7451863E-07    -2.3494572E+01   
                   7.1551617E-07     7.1959191E+01     8.5032094E-07     4.1062742E+01     3.7151222E-07    -8.0013847E+01     3.0840058E-03    -2.4753097E-02   
                   1.0731153E+00    -4.4356879E+01     1.1800117E-06     7.8514539E+00     1.2027573E-06     6.9257021E+01     8.3422924E-07     1.3890538E+02   
                   1.5856480E-05     4.7243020E+01     2.9055389E-06     1.4730753E+02     9.8940472E-07     6.5612285E+01     5.5576752E-06     1.3762943E+02   
                   6.4705321E-02     1.3564276E+02     7.5496474E-07    -1.3883866E+02     9.9999882E-01     1.2863553E+00     1.6714159E-06    -1.6342586E+02   
                   1.5261343E-06     1.3582435E+02     2.2655783E-06    -4.0325971E+01     2.3609050E-06     1.7604213E+02     2.1688589E-06     1.3150505E+02   
                   4.5298459E-06     5.0831498E+01     3.3545519E-06     1.3058896E+02     1.1616307E-01    -4.4356732E+01     1.5141482E-06     1.9893621E+01   
                   5.2959334E-07    -1.5920448E+02     2.0326771E-01     3.2608011E-05     3.4694995E-08    -2.4832317E+01     9.9787249E-07    -9.2349817E+01   
                   4.2091861E-07     1.7173887E+01     1.0772416E-07     6.9081092E+01     9.0969021E-08     1.7546765E+02     1.9249010E-07    -9.4111723E+01   
                   8.4691701E-08     7.2194854E+01     8.0221714E-03     1.7999969E+02     1.0029220E-06    -1.3284880E+02     1.9543024E-02     1.9971076E-05   
                   9.1485917E-07    -8.4491768E+01     2.2643615E-07    -1.9526740E+01     3.3977131E-07    -5.1216957E+01     1.1966314E-07    -8.8044564E+01   
                   1.7224579E-06     2.7375803E+01     3.9524395E-08    -1.7075036E+02     3.8658316E-07     1.2016987E+02     1.3287942E-02     1.9097115E-04   
                   1.6280248E-06     1.2531264E+02     2.1286297E-07     1.0487290E+02     7.2975173E-02     1.7999985E+02     8.9970080E-08     1.7966060E+02   
                   1.3810786E-07    -8.6922151E+01     2.7339510E-07     3.3383789E+00     8.1475415E-07    -8.9189397E+01     5.2597905E-07     8.5742467E-01   
                   1.1320509E-07    -4.2982201E+01     3.9288191E-08    -3.1843221E+01     2.5109343E-06     9.2434180E+01     5.1125422E-07    -1.2142201E+02   
                   7.6351646E-02    -1.7999935E+02     1.2715788E-06    -1.7512579E+02     9.5117351E-07    -1.0305913E+02     3.4036708E-06    -1.7396802E+02   
                   1.0625342E-06     5.4262855E+01     2.0474749E-06     1.4438431E+01     5.0522038E-07     1.5504285E+02     1.2777869E-06    -8.4133789E+00   
                   1.6234334E-06    -8.0200485E+01     2.5792795E-07     7.6327076E+01     1.9580624E-08     1.3124992E+01     2.6498114E-02     1.7999991E+02   
                   3.5859094E-08    -1.3002734E+02     1.9638384E-08     1.6370512E+02     1.1663255E-07     9.0655907E+01     5.4226358E-08    -1.6921556E+02   
                   8.9506191E-08     1.4266073E+02     2.8158084E-07    -1.0220652E+02     2.6673981E-06    -5.0404940E+01     1.2839182E-06    -5.4445200E+01   
                   1.6830586E-06    -1.7828834E+02     3.4124760E-02    -1.7999995E+02     6.3247993E-07     6.2489236E+01     1.1547652E-06    -1.7387089E+02   
                   1.7576220E-07     3.8824596E+01     2.0475484E-06     7.0810909E-01     4.7343159E-07    -1.1938424E+00     1.1296911E-06    -8.9679298E+01   
                   1.5978428E-06    -1.7440963E+02     4.2426104E-07    -1.5369242E+02     1.2420219E-07    -6.8579088E+00     6.8849665E-08     2.7630349E+01   
                   2.6846651E-02     1.7570500E+02     8.3304852E-08     1.7765951E+02     1.3585470E-07     1.5507026E+02     8.1389711E-08    -1.3109497E+02   
                   7.6114341E-07     1.9141044E+01     6.6074506E-08    -1.7369117E+02     2.0162155E-06    -1.5816147E+02     4.9751462E-07    -1.6512630E+02   
                   3.8292853E-07    -4.2534852E+01     7.2171682E-07     6.1447313E+01     1.9594533E-02     1.6962799E+02     4.1053805E-07    -9.8963152E+01   
                   1.0637020E-06    -2.7052045E+00     1.0547321E-07     9.5819066E+01     4.8971514E-07     8.8921814E+01     8.9855327E-07     3.1110486E+01   
                   1.0156911E-06     9.8649310E+01     2.0610643E-07     4.4485050E+01     1.9134540E-07    -8.5201402E+00     1.1558885E-08     4.3196671E+01   
                   1.5810184E-07     4.1989688E+00     1.6464885E-02    -4.9736965E-05     2.8302920E-08    -9.1035509E+01     2.6521989E-07    -1.7440437E+02   
                   1.8799873E-08    -1.0667213E+02     6.5376946E-08    -1.0717621E+02     2.9000571E-06     1.2838658E+02     5.9286671E-07     1.0962894E+02   
                   2.5217794E-06    -1.7292400E+02     1.3064964E-06     1.7244257E+02     1.3032066E-06    -3.5756173E+01     7.3525398E-02     1.7999978E+02   
                   1.5805031E-06    -1.3097576E+02     2.7241898E-06    -2.1330794E+00     9.9845317E-07     1.5931533E+02     9.5067103E-07    -1.0990917E+02   
                   1.7890131E-07    -1.4314941E+02     2.3773097E-07     4.2946995E+01     4.6304319E-08     1.2981963E+02     4.9707779E-08     1.4730086E+02   
                   1.3757381E-07    -1.5180396E+02     3.6747033E-08     1.6546317E+02     5.5278529E-03     1.0685704E-04     8.9995106E-08     1.4151805E+02   
                   1.1409032E-07    -1.2942521E+02     1.7333669E-07     1.6079610E+02     1.2665119E-06    -5.4850059E+00     2.2738638E-06    -5.4055385E+00   
                   7.3958747E-07    -1.0435006E+02     1.2844573E-07     2.5651573E+01     5.0976514E-07     4.9554936E+01     3.6610189E-07    -2.9490022E+01   