! S-parameter export from POSTFEKO
! Filename: 2wg_Junc_dense
! Creation date: 2021-04-27 18:56:33
! 
# Hz S MA R    5.0000000E+01 
  5.0000000E+09     4.2654680E-01     1.2928853E+02     6.6799257E-06    -1.6425506E+02     1.8356038E-06     9.5939288E+01     2.6665903E-06     1.2792402E+02   
                   1.2631101E-05    -7.8907846E+01     3.0859413E-06    -2.0995838E+01     1.5522554E-06     3.5509188E+01     3.0238444E-06     1.5016755E+02   
                   1.5220543E-03     8.6338276E+01     7.4657290E-07     9.7981687E+00     5.3651364E-01    -9.6823066E+01     9.2675184E-07    -3.9963851E+01   
                   9.3778920E-07     1.4307288E+02     1.3397975E-06    -5.7238164E+01     1.2631101E-05    -7.8907846E+01     2.5349150E-06     1.7237379E+02   
                   1.4773362E-06    -1.7769672E+02     3.9389511E-06    -5.9209416E+01     3.5784908E-01    -4.1374178E+01     2.2486181E-06     1.6481655E+02   
                   2.3916590E-06    -1.2601122E+02     5.5776997E-02     8.6501620E+01     2.0108877E-06     6.2670632E+01     1.1211117E-06    -1.3560597E+02   
                   3.3010170E-06    -2.9676224E+01     1.6377110E-06    -9.0980292E+01     1.2604969E-07    -7.2103349E+01     6.0012618E-07    -1.0809470E+02   
                   6.9549677E-07     8.8134383E+01     4.8081718E-04    -9.4123607E+01     1.1742946E-06     1.2427572E+02     5.8711064E-02    -9.1634216E+01   
                   2.6909752E-06     5.9333575E+01     7.9813409E-07     2.8722060E+00     3.3010170E-06    -2.9676224E+01     8.7131198E-07    -1.5454069E+02   
                   4.7099594E-07    -4.5578432E+01     3.9403539E-07     3.5331908E+00     1.4931741E-06     1.7524827E+02     3.2847707E-01    -3.0972642E+01   
                   1.7358885E-06     1.3418616E+02     6.9222292E-06     8.2447815E+01     5.0885112E-03    -3.0616201E+01     1.0249033E-06    -4.5980869E+01   
                   2.9316134E-06    -1.1891279E+02     1.3433663E-06     2.7660619E+00     1.0816910E-06    -2.2543770E+01     9.5925696E-07     5.4615550E+01   
                   3.9416128E-07     6.0151586E+01     3.9309696E-06    -8.5041612E+01     1.5161533E-06    -5.4900466E+01     2.1690753E-07     1.2958012E+02   
                   2.6944477E-02     1.4240080E+02     8.0800484E-07     2.8704019E+01     2.9316134E-06    -1.1891279E+02     3.3156448E-07    -1.6478621E+02   
                   4.4329693E-07     9.7584448E+01     2.4278086E-07     1.1265050E+02     7.9380826E-07     1.6988496E+02     4.6657340E-07    -1.6273027E+02   
                   4.4603660E-06    -1.6682701E+02     1.7604474E-06     1.7182045E+02     6.8626892E-07    -1.7211076E+02     2.0445236E-04    -1.7953008E+01   
                   4.9121163E-06     1.0039204E+02     1.8468406E-06     1.4020852E+01     3.4313979E-07    -3.7301643E+01     8.6182521E-07     1.6971272E+02   
                   4.1814607E-07     1.7052262E+01     5.8527580E-07     1.0971464E+01     4.3402506E-06     6.3762411E+01     8.1451945E-07     7.6192014E+00   
                   1.0353576E-06    -1.5209989E+02     1.1253523E-02     1.5772683E+02     4.9121163E-06     1.0039204E+02     5.8943013E-07     3.3811898E+01   
                   2.6253806E-07     1.0757454E+02     3.4084760E-07     8.4924775E+01     1.3182027E-06     1.3087371E+02     2.7752843E-07    -1.7943601E+02   
                   6.9942829E-06     3.9685980E+01     5.2168310E-06     1.9162452E+00     8.3424179E-07    -1.1695091E+02     2.7825300E-06     5.3068016E+01   
                   3.3639130E-01     3.1917099E+01     3.4462584E-06    -1.2737477E+02     7.3640129E-07    -1.6748260E+02     1.7099922E-06     6.2316370E+01   
                   2.1620268E-06    -1.2453721E+02     3.2972764E-06     1.7348937E+02     8.0538053E-06    -7.7204703E+01     1.6954683E-06    -1.3172039E+02   
                   1.5635389E-06     1.4854454E+02     4.1676908E-06     2.6825708E+01     1.2977775E+00     7.8765934E+00     4.7619133E-06    -1.0396388E+02   
                   2.2643395E-06     9.2735353E+01     3.4446294E-06    -1.5625178E+02     3.0937607E-06     7.8253226E+00     1.8059485E-06     2.9707077E+01   
                   2.5184759E-06    -4.6892886E+01     5.0186718E-06    -1.3567436E+02     2.6791499E-06     9.6840742E+01     1.0489543E-06     2.2740152E+00   
                   4.6845297E-06    -1.2218018E+02     1.5438161E-04    -8.9574005E-01     1.3006578E-06    -1.0706116E+02     1.3277493E-06    -1.7820852E+01   
                   9.8265952E-07    -4.8933688E+01     7.4732627E-07    -1.0837434E+02     2.6141879E-06    -1.2294720E+02     9.9142954E-07     1.5122512E+02   
                   4.6326690E-07     2.7228000E+01     1.9619987E-07     1.4581561E+02     4.6845297E-06    -1.2218018E+02     2.6875401E-03    -1.5381076E+01   
                   9.9844002E-07     2.8573353E+01     2.4534859E-07     1.5608871E+02     1.6946655E-06    -5.5057153E+01     1.3673589E-06     1.1308741E+01   
                   9.0355432E-07     1.5794640E+02     3.9686754E-06    -1.0703215E+02     7.8882355E-07     3.9144420E+00     1.5776165E-06    -6.6667668E+01   
                   3.1728360E-06     1.1875707E+02     5.1205781E-07    -1.6978048E+02     8.5551322E-05     1.7668207E+02     2.5343334E-07    -1.2479533E+02   
                   7.4003814E-07     9.3086211E+01     2.1307139E-06     1.7487248E+02     1.1362036E-06     1.6585656E+02     1.1657216E-06     7.4620501E+01   
                   1.0729197E-06    -7.9496499E+01     9.2636180E-07     1.2277833E+02     3.1728360E-06     1.1875707E+02     2.7431505E-07    -8.0628267E+01   
                   2.5276026E-03    -8.8485725E+01     1.2404612E-06     8.2237323E+00     5.4575931E-07    -1.2636164E+02     2.7684096E-07    -5.1485460E+01   
                   1.9754603E-06     1.5512031E+02     4.8508798E-06    -3.0171505E+01     2.6058218E-06     2.2909416E+01     1.0400766E-06    -1.5369420E+02   
                   3.3528608E-06     6.2505426E+01     1.9278342E-06    -1.5970193E+01     1.3221435E-06    -7.3486944E+01     2.1315640E-04    -1.7995409E+02   
                   1.8234907E-06    -2.4077362E+01     1.6256426E-06     6.1037943E+01     1.1335830E-06     5.5164954E+01     1.2170221E-07    -1.0897115E+02   
                   3.9739877E-07     1.5838573E+02     4.4466688E-07     1.6384139E+02     3.3528608E-06     6.2505426E+01     3.2384597E-07    -7.8644336E+01   
                   4.8153614E-07     1.1553419E+02     2.5892218E-04    -1.6586651E+02     1.1311916E-06     1.0858067E+02     9.5217576E-07     5.0823609E+01   
                   1.5238290E-03     8.6438729E+01     1.1964845E-06     9.2657632E+01     7.4218797E-07    -1.7137100E+02     1.2157207E-06     5.6805370E+01   
                   2.1507430E-06    -1.0021639E+02     4.4700903E-07    -1.4884690E+02     2.9778870E-07    -1.0424480E+01     1.9196787E-06    -1.5431182E+01   
                   7.2414105E-05    -1.7680641E+02     9.3655918E-07    -1.6131491E+02     1.3753981E-03     7.7321215E+01     2.7508844E-07     1.4892992E+02   
                   1.6624469E-06    -1.6752494E+02     1.3172855E-06    -7.3220986E+01     2.1507430E-06    -1.0021639E+02     8.8876549E-07    -5.3395562E+01   
                   1.7500767E-06    -4.0815858E+01     7.4170909E-08     1.4768234E+02     8.5633477E-04     8.5665565E+01     8.2202445E-07    -3.5391291E+01   
                   2.9835572E-06     1.2654145E+02     4.8365675E-04    -9.3813355E+01     2.4634491E-06    -8.8535928E+01     1.9012193E-07     1.6591745E+02   
                   6.9168392E-06     5.5487308E+01     8.9632031E-07    -1.3347960E+02     3.8678148E-07     1.4996810E+02     1.2733726E-06    -1.3593621E+02   
                   5.3454716E-07    -6.0982060E+01     9.1253430E-05     1.7677168E+02     2.1785695E-06     5.8740046E+00     8.0138351E-04     7.4590828E+01   
                   1.7070624E-06     5.8377694E+01     2.3811318E-06    -6.4215972E+01     6.9168392E-06     5.5487308E+01     1.2925855E-06    -7.6229373E+01   
                   2.4747937E-07     1.7832773E+02     1.1197668E-06    -2.8065456E+01     2.1754292E-06     1.4422000E+02     2.7767801E-03     1.4972873E+02   
                   5.3651416E-01    -9.6823632E+01     3.9571148E-06     6.5517364E+01     4.6407619E-07     3.1790031E+01     2.3422322E-06     4.7666302E+01   
                   7.0824914E-06    -5.3086955E+01     1.9002195E-06    -1.3642526E+02     4.9208780E-07    -5.3147202E+01     1.8874725E-06     4.3016684E+01   
                   1.3738261E-03     7.7354905E+01     9.4847910E-07    -1.7994591E+02     5.1937569E-01     2.1132579E+00     2.5506564E-07     1.6786526E+02   
                   1.2094630E-06     1.4421383E+02     1.7136651E-06    -1.5196784E+02     7.0824914E-06    -5.3086955E+01     3.5503500E-06     9.3419225E+01   
                   2.7902934E-06     4.8747363E+01     2.5106976E-06    -1.4157805E+02     3.2631799E-01    -1.0741002E+02     1.9994654E-06     7.9113441E+01   
                   1.2920583E-06     1.2279085E+02     5.8709671E-02    -9.1636182E+01     3.4805516E-07     1.0987988E+02     5.0599844E-08     1.6753075E+02   
                   6.1646029E-06    -9.0295090E+01     7.6352510E-08    -2.2610691E+01     1.5817851E-07    -1.7630799E+02     1.6260937E-07     3.9310033E+00   
                   1.1342793E-07    -1.4195749E+02     8.0367786E-04     7.4588653E+01     1.4126929E-06     6.0698996E+01     9.8029438E-01     1.8884073E+01   
                   4.6567090E-06     1.2250766E+02     2.1241815E-06     5.1420569E+01     6.1646029E-06    -9.0295090E+01     2.9631117E-06     1.5893490E+02   
                   2.4889648E-06     2.4721607E+01     2.8534931E-06     7.7248491E+01     2.6091595E-06    -8.1618315E+01     1.9754990E-01    -1.5737847E+02   
                   1.0341793E-06    -2.6718432E+01     1.6011583E-06     5.8230081E+01     2.6943302E-02     1.4240077E+02     1.1809374E-07     1.3665371E+01   
                   2.1182257E-06    -5.0665990E+01     6.0656811E-08     3.6325486E+01     2.7315443E-07     2.0520201E+01     2.7244716E-07     5.3335841E+01   
                   6.1572133E-08     2.1865157E+01     9.2022289E-07     1.2731159E+02     1.3725499E-06    -1.7040171E+02     2.9640440E-06     1.4862744E+02   
                   9.9658052E-01     2.6580155E+01     1.3104427E-06     5.7723574E+00     2.1182257E-06    -5.0665990E+01     1.9709789E-06    -1.2747733E+02   
                   2.1683733E-06    -6.8776859E+01     1.3242604E-06     1.6478011E+02     2.2804938E-06     7.2292992E+01     2.5167385E-06     1.4129204E+02   
                   3.0102184E-07    -2.4609377E+00     3.3536170E-06    -1.4559827E+02     3.6087038E-07    -1.7977239E+02     1.1253288E-02     1.5772650E+02   
                   1.5879625E-06    -1.6713382E+02     3.8417841E-08    -7.1759551E+00     2.7011422E-07     1.2120339E+02     1.7428131E-07     1.1189226E+01   
                   1.6200168E-07    -1.6843109E+02     6.8167067E-07    -3.7088344E+01     1.1671868E-06    -8.5454344E+01     2.0931012E-06     7.3518126E+01   
                   1.5147404E-06    -4.9343437E+01     9.9999998E-01     4.5454551E+01     1.5879625E-06    -1.6713382E+02     8.2026451E-07    -1.0106146E+02   
                   1.3369739E-06     1.2884368E+02     1.1041326E-06     7.3269149E+01     9.8975610E-07    -1.6578361E+02     3.7900208E-06    -2.8008755E+01   
                   6.9942829E-06     3.9685980E+01     5.2168310E-06     1.9162452E+00     8.3424179E-07    -1.1695091E+02     2.7825300E-06     5.3068016E+01   
                   1.2977775E+00     7.8765934E+00     3.4462584E-06    -1.2737477E+02     7.3640129E-07    -1.6748260E+02     1.7099922E-06     6.2316370E+01   
                   2.1620268E-06    -1.2453721E+02     3.2972764E-06     1.7348937E+02     8.0538053E-06    -7.7204703E+01     1.6954683E-06    -1.3172039E+02   
                   1.5635389E-06     1.4854454E+02     4.1676908E-06     2.6825708E+01     3.3639130E-01     3.1917099E+01     4.7619133E-06    -1.0396388E+02   
                   2.2643395E-06     9.2735353E+01     3.4446294E-06    -1.5625178E+02     3.0937607E-06     7.8253226E+00     1.8059485E-06     2.9707077E+01   
                   2.6720608E-06     1.7230350E+02     6.2778389E-07    -1.4333558E+02     1.3429266E-07     1.0043995E+02     4.0643806E-08     4.7858075E+01   
                   2.2667333E-06    -1.1895480E+02     2.6873810E-03    -1.5389926E+01     1.8627342E-07     8.3377965E+01     3.5721686E-08    -1.2914070E+02   
                   3.1907474E-08    -1.9987111E+00     1.2935454E-06    -1.1817323E+02     4.1800514E-06     1.2669644E+02     1.1501893E-06     5.4572389E+01   
                   8.1231921E-06    -1.1356670E+02     5.5082407E-06    -9.9727782E+00     2.2667333E-06    -1.1895480E+02     9.9999459E-01     5.9221874E+01   
                   3.5287693E-06     1.4883343E+02     3.0783213E-06    -1.7511806E+02     1.6769388E-06    -1.2916050E+02     4.2075904E-06     2.7839162E+01   
                   4.0940309E-06     1.4339776E+02     1.3891589E-06    -1.2061407E+02     5.2385066E-07     1.9531570E+01     5.2792566E-07     1.6327774E+02   
                   5.3419318E-06    -1.4933501E+01     5.2319499E-07     6.3481649E+00     2.5272654E-03    -8.8479809E+01     3.5040675E-07     1.5381529E+02   
                   3.6392639E-07    -7.1137651E+00     1.0745629E-06     1.5541207E+02     6.0205489E-06    -9.3866853E+01     4.0756183E-06     1.0413919E+01   
                   5.8174822E-06    -1.7395866E+02     2.8487650E-06     9.9932367E+01     5.3419318E-06    -1.4933501E+01     3.8609869E-06    -2.9560108E+01   
                   9.9657690E-01     9.3450467E+01     2.7649050E-06    -1.4235443E+02     2.6509995E-06     6.9707067E+01     4.8015694E-06     3.4345706E+01   
                   2.1169585E-06    -1.5466529E+02     8.1146468E-07    -1.0769182E+02     4.3563002E-07     1.6899332E+02     2.1841038E-08     3.1574969E+01   
                   9.9561700E-07     6.8632795E+01     5.8764081E-08    -2.8206790E+01     6.6085766E-08     1.4691730E+02     2.5857696E-04    -1.6577660E+02   
                   3.9138436E-08     9.2507765E+00     1.9427181E-07    -1.5205502E+02     8.2553426E-06    -6.0590933E+01     5.1459055E-06     1.0591989E+02   
                   6.2099700E-06    -1.4873808E+02     3.2720505E-06     1.2680301E-02     9.9561700E-07     6.8632795E+01     5.8984489E-06     2.6263742E+01   
                   1.3285834E-06    -8.5068611E+01     1.0000000E+00     1.1842887E+02     5.9498374E-06     1.7016076E+02     1.8646265E-06    -1.3468639E+02   
                   3.5785133E-01    -4.1374171E+01     1.2831030E-06     6.5218387E+01     1.0743132E-07     7.5691365E+01     1.5117391E-06     1.0381806E+02   
                   2.7260844E-06    -4.8834753E+01     1.4583680E-06    -8.2414389E+01     3.1491607E-07    -1.1891026E+01     1.2330116E-06     8.2030362E+01   
                   8.5630189E-04     8.5687475E+01     9.0578522E-07    -1.2645336E+02     3.2631732E-01    -1.0741013E+02     1.6850992E-06    -1.3818481E+02   
                   1.8202163E-06    -7.9324988E+01     1.9958352E-06     4.1533011E+01     2.7260844E-06    -4.8834753E+01     1.4396552E-06    -2.3580774E+01   
                   2.2265665E-06     1.3251788E+02     7.1939090E-07    -4.1797083E+01     7.8529553E-01     1.1737707E+02     2.9086009E-06    -1.6818077E+02   
                   2.0555905E-06    -1.1205326E+02     3.2847641E-01    -3.0972977E+01     1.1102381E-06    -7.2634154E+01     2.7310299E-07     1.7436920E+01   
                   3.6160857E-06     7.4215734E+01     2.6781874E-07     2.1752526E+01     1.1808430E-07    -1.6304329E+02     1.2703958E-07    -3.3063317E+01   
                   3.3206975E-07    -1.3081661E+02     2.7755893E-03     1.4975103E+02     3.6072072E-06     5.5083994E+00     1.9755159E-01    -1.5737933E+02   
                   1.0318011E-05    -7.9621782E+01     4.2434718E-06    -3.0893770E+01     3.6160857E-06     7.4215734E+01     4.4296323E-06     2.1702830E+01   
                   1.0242672E-06    -1.1990572E+02     3.8282018E-07     1.0694834E+02     3.3329981E-06    -1.7082713E+02     9.8029232E-01    -1.5364084E+02   
  5.5263158E+09     7.1165011E-02     7.9016165E+01     6.8239427E-06    -1.0080754E+02     2.8858329E-06     4.3526917E+01     2.2108496E-06     1.1298076E+02   
                   1.2935970E-05    -6.5757274E+01     2.0716561E-06    -5.6387079E+01     1.2967378E-06     1.0411354E+01     2.5436086E-06     1.2201566E+02   
                   1.8109723E-03     5.2017789E+01     3.8428441E-06     2.4148014E+01     5.8029569E-01    -1.4173362E+02     1.6747662E-05     3.8501457E+01   
                   5.3166707E-06    -1.4422364E+02     6.5230143E-06    -1.0185680E+01     1.2935970E-05    -6.5757274E+01     4.7191055E-06    -6.7457812E+01   
                   2.6566438E-06    -4.0175218E+01     8.3560589E-06     1.6881700E+02     4.8046270E-01    -9.8120335E+01     2.0987780E-05     9.5436049E+01   
                   1.1521914E-06    -1.3640663E+02     7.8621891E-02     3.6918920E+01     3.8053725E-06     7.0920883E+01     4.6259823E-07     6.9715533E+01   
                   8.4679718E-07     1.3895280E+02     8.0325837E-07    -1.1069037E+02     2.1941928E-06     1.3168939E+01     3.7198577E-07    -1.6033255E+02   
                   1.4539392E-06     5.4807786E+01     5.4417647E-04    -1.4009747E+02     1.4739065E-06     1.4911807E+02     7.7015001E-02    -1.2249288E+02   
                   7.7184889E-07    -1.4610170E+02     1.6553872E-06    -9.2051117E+01     8.4679718E-07     1.3895280E+02     1.4197813E-06    -1.0091294E+02   
                   7.4159771E-07    -7.2096210E+01     3.2047514E-06     6.8393821E+01     3.2876518E-06     5.0564186E+01     2.9751996E-01    -7.7883036E+01   
                   3.2831733E-06     4.6877216E+01     1.3188851E-06     1.2811681E+02     7.7752269E-03    -2.6104524E+01     1.6833566E-06    -1.7318439E+02   
                   3.2447688E-06    -4.8503124E+01     2.8179279E-06     6.5168042E+01     7.9283565E-06    -5.1677841E+01     1.9434468E-06     5.4756765E+01   
                   1.0497341E-06     1.7608625E+02     1.1405623E-06    -1.4772708E+02     1.5618811E-06     1.3236418E+02     2.4023708E-06    -1.1819778E+02   
                   3.5752447E-02     1.3168255E+02     1.4714666E-06    -1.4696990E+02     3.2447688E-06    -4.8503124E+01     1.2753815E-06    -7.7972198E-01   
                   1.3803316E-06     1.6801092E+02     8.4003808E-07     3.1207577E+01     9.4270508E-07    -3.9946235E+01     1.7500635E-06    -6.8899336E+01   
                   3.3651763E-06     1.1470890E+02     9.7295069E-07    -1.4146409E+02     5.7778834E-07    -1.5283730E+02     3.2866589E-04    -1.7349029E+01   
                   1.9351397E-06    -2.5315220E+01     1.4222906E-06    -9.4557159E+00     1.3576792E-06    -8.4784454E+01     6.0579036E-07     1.6106112E+02   
                   1.5819624E-06     2.3249729E+00     1.3004171E-06    -1.4457613E+02     1.8593399E-06    -2.9322265E+00     6.8054670E-07    -8.7706543E+01   
                   3.2108723E-07    -1.4569718E+02     1.3979624E-02     1.4508292E+02     1.9351397E-06    -2.5315220E+01     3.8874275E-07    -2.4427770E+01   
                   1.0455665E-06     1.6347493E+02     3.8715494E-07    -1.3940596E+02     1.3165383E-06     7.5353404E+01     8.2133372E-07    -1.4364492E+02   
                   1.2629791E-06    -2.6979775E+00     1.2562659E-06    -9.5755240E+00     8.8493274E-08     2.4213926E+01     1.7845726E-06     1.7763023E+01   
                   5.4017088E-01     2.3017560E+01     1.9161393E-06    -1.6133158E+02     6.7109208E-07    -3.2398911E+01     1.2206563E-06     9.2420393E+00   
                   1.2265628E-06    -1.4180091E+02     8.9079833E-07     1.4463272E+02     6.2865420E-06    -1.2825687E+02     1.5424310E-06     1.7540790E+01   
                   5.0684048E-06    -1.7729552E+02     2.2030915E-06     3.0055692E+01     1.5119904E+00     8.0300620E+00     2.5918636E-06    -1.5963424E+02   
                   6.5108964E-06    -1.6966639E+02     3.5265492E-06     1.7308153E+02     1.8659090E-06    -3.0213477E+00     3.4635300E-06     1.3368082E+02   
                   4.2565688E-06    -9.2935492E+01     4.0412605E-06    -1.0595439E+02     4.2154039E-06    -4.8308145E+01     1.2500401E-06    -1.2863483E+01   
                   4.1369961E-06     1.1292086E+02     3.5218044E-04    -3.5731567E-01     4.0457522E-06    -6.7174020E+01     1.1581087E-06     6.6241484E+01   
                   4.1684251E-06    -1.3042405E+02     4.4369646E-06     1.6835549E+02     2.4494275E-06    -1.6266758E+02     1.2097211E-07     4.7228694E+01   
                   8.3477040E-07    -2.7721209E+01     5.1513547E-07    -1.2650360E+02     4.1369961E-06     1.1292086E+02     3.4523523E-03    -2.8831062E+01   
                   1.4803937E-07     1.4673184E+02     5.9576891E-07     1.7891116E+02     1.3426158E-06    -1.3144618E+02     9.2262094E-07    -7.7354183E+01   
                   1.8049262E-06     9.5269850E+01     6.7133433E-06    -1.4678675E+02     3.8417940E-06     1.6722886E+02     1.3892025E-06     1.4287391E+02   
                   2.9337878E-06    -3.0160600E+01     4.4824937E-06    -2.0278659E+01     8.8702822E-05     1.7827761E+02     5.8182281E-07     3.1833921E+01   
                   1.6885161E-06    -1.7228551E+02     2.4605126E-06     1.4196438E+02     1.6524445E-06     1.5099776E+02     4.4821843E-07     6.7795856E+01   
                   2.0096544E-06     1.0743707E+02     1.5762644E-06    -8.7414301E+01     2.9337878E-06    -3.0160600E+01     7.7237567E-07    -1.1342419E+02   
                   2.4211581E-03    -1.0717545E+02     1.0829626E-06    -1.1641856E+02     7.0049389E-07    -1.2273185E+02     3.1677695E-07    -1.2125522E+02   
                   3.6957499E-06     1.2288208E+02     3.0694045E-06     2.8573157E+01     1.2660835E-06     7.8475526E+01     1.2066747E-06     1.7405487E+02   
                   5.5323513E-07     1.1605604E+01     2.2283938E-06    -2.3961954E+01     6.3196283E-07    -1.5859240E+02     2.0743767E-04     1.7999541E+02   
                   2.3967589E-06     3.5826435E+01     2.8408724E-06    -2.5946049E+01     1.1712660E-06     3.1338903E+01     9.7574014E-07    -6.9963445E+01   
                   5.3340520E-07    -9.5045631E+01     1.0219038E-06     6.4939635E+00     5.5323513E-07     1.1605604E+01     4.4878119E-07     6.4686378E+01   
                   4.5572736E-07     1.6865853E+02     3.6536114E-04     1.7261056E+02     1.5413939E-06     3.1376880E+01     2.0161228E-06     1.4727130E+02   
                   1.8099663E-03     5.2074825E+01     2.6167231E-06     1.7538856E+02     7.4550165E-07    -9.1936452E+01     7.9819953E-07    -1.1001201E+01   
                   1.9374542E-06    -1.6764564E+02     5.8948489E-07    -1.7396884E+02     2.0191979E-06     1.2691091E+02     1.3267614E-06     4.4691383E+00   
                   6.6520104E-05    -1.7743727E+02     1.2722210E-06    -1.7726783E+02     1.2258339E-03     8.1236839E+01     7.1708264E-07     9.1533719E+01   
                   8.3526055E-07     1.5514777E+02     4.5296418E-07     1.7844091E+02     1.9374542E-06    -1.6764564E+02     2.1261189E-07     1.6722948E+02   
                   1.3882601E-07    -8.8310149E+01     1.6707670E-07     3.3534817E+01     8.2455672E-04     5.9339684E+01     2.9450391E-07    -6.1974806E+00   
                   2.5759894E-06     5.4086573E+01     5.4454676E-04    -1.3971768E+02     7.1448350E-07    -7.5282923E+01     2.6181004E-08     1.3608299E+02   
                   1.0045272E-06     1.1838667E+02     5.2473288E-07     3.9001190E+01     3.5319499E-07     7.0026201E+01     8.3262867E-07     8.7514197E+01   
                   8.8724085E-07    -9.8999720E+01     8.4307569E-05     1.7791018E+02     1.9625789E-06    -9.7582852E+01     8.8667796E-04     5.2344854E+01   
                   3.6822419E-08     5.8770277E+01     2.8204960E-07     8.6217678E+01     1.0045272E-06     1.1838667E+02     2.4139774E-07     7.0656576E+01   
                   9.8951944E-08    -1.0425342E+02     4.1598614E-07     5.2750108E+01     1.4848964E-06    -5.9036799E+01     2.1239522E-03     1.0267582E+02   
                   5.8027457E-01    -1.4173333E+02     5.0445097E-06     4.2455301E+01     1.0593050E-06     1.2633542E+02     2.3206966E-06     9.8700491E+00   
                   5.5763743E-06    -1.7867937E+02     6.6108666E-07     1.7789852E+02     2.5058046E-07    -1.2370437E+02     1.2759996E-06    -9.1326698E+00   
                   1.2260592E-03     8.1268524E+01     2.9797792E-06    -1.0537478E+02     6.3769514E-01    -1.0546400E+01     2.3249025E-06    -1.5769027E+02   
                   2.6259467E-06     1.4818084E+01     5.8571996E-07    -7.1119398E+01     5.5763743E-06    -1.7867937E+02     5.1324811E-06    -1.5160070E+02   
                   2.2619227E-06    -1.7187969E+02     3.7463161E-06    -1.1736687E+02     2.9994765E-01    -1.4702609E+02     4.5168660E-06     9.8917387E+01   
                   1.0224601E-05     4.3518861E+01     7.7014807E-02    -1.2249447E+02     1.5122514E-07     1.6996217E+02     1.4754137E-07    -1.4374483E+02   
                   4.6814086E-06    -1.2262178E+02     9.0600851E-08    -1.7435510E+02     1.3273518E-07     1.5411559E+02     1.2230125E-07     5.1713190E+01   
                   2.2683280E-07    -1.6554422E+01     8.8653687E-04     5.2340401E+01     5.5556003E-06     1.5537421E+02     9.9281566E-01    -1.8121720E+00   
                   2.6981000E-06    -1.4775990E+02     3.0180793E-06    -1.3679453E+02     4.6814086E-06    -1.2262178E+02     1.8195986E-06    -1.9852938E+01   
                   7.7408257E-06    -4.1746958E+01     1.0368908E-05     9.4434558E+01     2.2548870E-06    -3.2345129E+01     1.1966538E-01     1.4534809E+02   
                   3.0099714E-06     6.6159722E+01     5.9256203E-06    -4.6544554E+01     3.5752248E-02     1.3167982E+02     2.1021945E-07     1.7880217E+02   
                   1.9127704E-06    -1.5613965E+02     3.2056126E-07     4.7976779E+01     7.1417793E-08     1.2976387E+02     1.6201165E-07     1.7189825E+02   
                   7.7549447E-08    -1.1345074E+02     4.4189185E-07    -3.4195889E+01     6.6281787E-06     1.6216019E+02     2.6971016E-06    -1.1329701E+02   
                   9.9607803E-01     3.9736695E+00     2.6349983E-06     7.7536015E+01     1.9127704E-06    -1.5613965E+02     1.7024363E-06    -9.7940345E+01   
                   5.1983441E-06     6.3638830E-01     2.7100847E-06     8.0206402E+01     5.1335622E-06     2.4432708E+01     2.6982112E-06    -1.2228928E+02   
                   7.2424751E-07    -1.0429980E+01     1.7537436E-06     1.5348106E+02     5.2696552E-07    -1.6298696E+02     1.3979855E-02     1.4508238E+02   
                   8.0558965E-07     5.5523596E+01     3.5064706E-07     1.4555851E+02     7.0470249E-07    -1.2991249E+02     5.7199664E-07    -9.5255116E+01   
                   3.7912542E-07    -1.3824131E+02     5.6923147E-07    -1.3249642E+02     2.2663122E-06    -1.1534718E+02     1.4752109E-06     1.0454884E+01   
                   4.4191836E-06     1.3173979E+02     9.9999766E-01     2.0166474E+01     8.0558965E-07     5.5523596E+01     4.5184953E-07    -1.6032931E+02   
                   2.2947585E-06    -1.4512897E+02     1.7873992E-06     9.9041244E+01     5.4321409E-07    -1.0668784E+01     4.1022059E-06     1.7250302E+02   
                   1.2629791E-06    -2.6979775E+00     1.2562659E-06    -9.5755240E+00     8.8493274E-08     2.4213926E+01     1.7845726E-06     1.7763023E+01   
                   1.5119904E+00     8.0300620E+00     1.9161393E-06    -1.6133158E+02     6.7109208E-07    -3.2398911E+01     1.2206563E-06     9.2420393E+00   
                   1.2265628E-06    -1.4180091E+02     8.9079833E-07     1.4463272E+02     6.2865420E-06    -1.2825687E+02     1.5424310E-06     1.7540790E+01   
                   5.0684048E-06    -1.7729552E+02     2.2030915E-06     3.0055692E+01     5.4017088E-01     2.3017560E+01     2.5918636E-06    -1.5963424E+02   
                   6.5108964E-06    -1.6966639E+02     3.5265492E-06     1.7308153E+02     1.8659090E-06    -3.0213477E+00     3.4635300E-06     1.3368082E+02   
                   9.8030659E-06    -1.3899399E+02     3.2381562E-06     4.7801691E+01     6.2120088E-07    -1.6247888E+02     2.2432786E-07    -1.0638964E+02   
                   5.7493773E-06     1.1830893E+02     3.4518088E-03    -2.8817548E+01     2.1234894E-07    -1.7051318E+02     1.2365503E-07    -9.0169600E+01   
                   1.4648940E-07    -7.7023912E+01     1.9911368E-07    -1.5348382E+02     5.7000959E-06    -8.9262544E+01     5.1714488E-06    -1.5275697E+02   
                   5.4505522E-06    -1.3470240E+02     2.2678582E-06     1.2501892E+02     5.7493773E-06     1.1830893E+02     1.0000080E+00     3.2366183E+01   
                   9.0808663E-06     1.3270919E+02     7.4794432E-06    -7.0430023E+01     2.9915669E-06     1.2814031E+02     6.7193585E-06     1.3886749E+02   
                   8.6416545E-06     1.5289429E+02     2.1764266E-06     1.5308293E+02     9.2539975E-08    -1.1687851E+01     5.8426009E-07     1.6140591E+02   
                   5.9156786E-06     3.3094479E+01     4.7014522E-07     1.1720538E+01     2.4226390E-03    -1.0718361E+02     4.3087009E-07     1.6955872E+02   
                   2.9240185E-07    -4.7134365E+01     4.4711530E-07     9.4938989E+01     6.5010918E-06     5.7605969E+01     6.9496052E-06    -1.0032094E+02   
                   4.1064019E-06    -8.8582823E+01     4.1797270E-06    -4.3610493E+01     5.9156786E-06     3.3094479E+01     4.3943212E-06     5.4190280E+01   